#INFO: **** input file is /project/lgagliardi/valayagarawal/lasscf/mof_nodes/Al_Fe_Fe/production/20_11/lassi_1_5.py ****
import numpy as np
import sys
from pyscf import gto, scf, tools,lib, mcscf
from pyscf.mcscf import avas,project_init_guess
from pyscf import mcscf
from mrh.my_pyscf.tools import molden
from mrh.my_pyscf.mcscf import lasscf_async as asyn
mol_name='Al_Fe_Fe.xyz' # Al-Fe-Fe MOF node
basis={'C': 'cc-pvdz','H': 'cc-pvdz','O': 'cc-pvtz','Al': 'cc-pvtz','Fe': 'cc-pvtz'}
n=5
output='r1_n'+str(n)+'.log'
mol=gto.M(atom=mol_name,verbose=4,spin=9,charge=0,basis=basis, output=output) #spin = 2S
mf=scf.RHF(mol)
mf.init_guess='atom'
mf=mf.density_fit()
mf.max_cycle=1
mf.kernel()
mf.mo_coeff=np.load('hf.npy')
#np.save('hf',mf.mo_coeff)
#ncas,nelecas,guess_mo_coeff=avas.kernel(mf,['Fe 3d', 'Fe 4d'],minao=mol.basis, openshell_option=3)
#mc_test = mcscf.CASCI (mf, ncas, nelecas)
#tools.molden.from_mo(mol,'avas.molden',guess_mo_coeff[:,mc_test.ncore:][:,:ncas])
#final_list=[5,6,8,9,10,11,12,13,14]#,15,16,17,18,19,20,21,22,23,24,25]+mc_test.ncore

mo_guess=np.load('las_20_11.npy')
las=asyn.LASSCF(mf,(10,10),((1,5),(5,0)),spin_sub=(5,6),verbose=4) # spin is 2S+1
las.set_fragments_(([17],[19]),mo_guess)
las.mo_coeff=mo_guess
from mrh.my_pyscf.lassi import states
las=states.spin_shuffle(las)
#for _ in range(i):
las=states.all_single_excitations(las)
ncsf=las.get_ugg().ncsf_sub
lroots=np.minimum(n,ncsf)
las.lasci()
las.lasci(lroots=lroots)
e_roots, si= las.lassi(opt=1)
from mrh.my_pyscf.lassi.sitools import analyze
analyze(las,si, state=[0,1,2,3,4])
#INFO: ******************** input file end ********************


System: uname_result(system='Linux', node='midway3-0556.rcc.local', release='4.18.0-305.3.1.el8.x86_64', version='#1 SMP Tue Jun 1 16:14:33 UTC 2021', machine='x86_64')  Threads 16
Python 3.9.12 (main, Apr  5 2022, 06:56:58) 
[GCC 7.5.0]
numpy 1.25.0  scipy 1.7.3
Date: Tue Feb 20 18:14:28 2024
PySCF version 2.5.0
PySCF path  /project/lgagliardi/shared/Apps/pyscf
GIT ORIG_HEAD 0bc590ffddec98eec5d2513a3d85274b7a791bc6
GIT HEAD (branch master) 6f8ce439fbe0c26ec4d226e2225b28c7f668f922

[ENV] PYSCF_MAX_MEMORY 128000
[CONFIG] conf_file /home/valayagarawal/.pyscf_conf.py
[INPUT] verbose = 4
[INPUT] num. atoms = 28
[INPUT] num. electrons = 211
[INPUT] charge = 0
[INPUT] spin (= nelec alpha-beta = 2S) = 9
[INPUT] symmetry False subgroup None
[INPUT] Mole.unit = angstrom
[INPUT] Symbol           X                Y                Z      unit          X                Y                Z       unit  Magmom
[INPUT]  1 O     -2.220198244100   0.399190300300   1.694471698900 AA   -4.195566623589   0.754360339150   3.202087436747 Bohr   0.0
[INPUT]  2 O     -1.685553244600  -1.782306321700   1.431399507200 AA   -3.185234000666  -3.368070818094   2.704953043445 Bohr   0.0
[INPUT]  3 C     -2.268517865100  -0.831955037900   1.983951274000 AA   -4.286877473722  -1.572167169583   3.749124552342 Bohr   0.0
[INPUT]  4 H     -2.913342016700  -1.076728588500   2.843786805300 AA   -5.505418518751  -2.034722142755   5.373978218669 Bohr   0.0
[INPUT]  5 O      1.388288080900   2.079556156200  -1.347085675300 AA    2.623484254899   3.929791595871  -2.545622992642 Bohr   0.0
[INPUT]  6 O     -0.759908859500   2.580923634700  -0.849227704000 AA   -1.436019624086   4.877238818000  -1.604807777953 Bohr   0.0
[INPUT]  7 C      0.346567468600   2.753895325000  -1.438835699000 AA    0.654917599338   5.204107939970  -2.719005409357 Bohr   0.0
[INPUT]  8 H      0.372379614500   3.617699659800  -2.123091150300 AA    0.703695485776   6.836461557954  -4.012060811555 Bohr   0.0
[INPUT]  9 O      1.046960908100  -2.642534200000   0.961324672200 AA    1.978469379435  -4.993665912797   1.816640347245 Bohr   0.0
[INPUT] 10 O     -0.399190300300   2.220198244100   1.694471698900 AA   -0.754360339150   4.195566623589   3.202087436747 Bohr   0.0
[INPUT] 11 O      1.782306321700   1.685553244600   1.431399507200 AA    3.368070818094   3.185234000666   2.704953043445 Bohr   0.0
[INPUT] 12 C      0.831955037900   2.268517865100   1.983951274000 AA    1.572167169583   4.286877473722   3.749124552342 Bohr   0.0
[INPUT] 13 H      1.076728588500   2.913342016700   2.843786805300 AA    2.034722142755   5.505418518751   5.373978218669 Bohr   0.0
[INPUT] 14 O     -2.079556156200  -1.388288080900  -1.347085675300 AA   -3.929791595871  -2.623484254899  -2.545622992642 Bohr   0.0
[INPUT] 15 O     -2.580923634700   0.759908859500  -0.849227704000 AA   -4.877238818000   1.436019624086  -1.604807777953 Bohr   0.0
[INPUT] 16 C     -2.753895325000  -0.346567468600  -1.438835699000 AA   -5.204107939970  -0.654917599338  -2.719005409357 Bohr   0.0
[INPUT] 17 H     -3.617699659800  -0.372379614500  -2.123091150300 AA   -6.836461557954  -0.703695485776  -4.012060811555 Bohr   0.0
[INPUT] 18 Fe    -0.379874189300  -1.792603362900  -0.200337730300 AA   -0.717858179568  -3.387529405855  -0.378583442684 Bohr   0.0
[INPUT] 19 O      0.642223180300  -2.237796553000  -1.892914517600 AA    1.213625921614  -4.228822607666  -3.577090015477 Bohr   0.0
[INPUT] 20 Fe     1.792603362900   0.379874189300  -0.200337730300 AA    3.387529405855   0.717858179568  -0.378583442684 Bohr   0.0
[INPUT] 21 O      2.237796553000  -0.642223180300  -1.892914517600 AA    4.228822607666  -1.213625921614  -3.577090015477 Bohr   0.0
[INPUT] 22 O      2.642534200000  -1.046960908100   0.961324672200 AA    4.993665912797  -1.978469379435   1.816640347245 Bohr   0.0
[INPUT] 23 Al    -1.236271642100   1.236271642100   0.350650148000 AA   -2.336214819135   2.336214819135   0.662632745258 Bohr   0.0
[INPUT] 24 O     -0.044950195400   0.044950195400   0.012762141300 AA   -0.084943558552   0.084943558552   0.024116951820 Bohr   0.0
[INPUT] 25 C      1.645528685000  -1.645528685000  -2.357112465400 AA    3.109598544766  -3.109598544766  -4.454297004404 Bohr   0.0
[INPUT] 26 H      2.056906298400  -2.056906298400  -3.294571291600 AA    3.886989567869  -3.886989567869  -6.225837438979 Bohr   0.0
[INPUT] 27 C      2.160924281100  -2.160924281100   1.277584186800 AA    4.083555067202  -4.083555067202   2.414284214127 Bohr   0.0
[INPUT] 28 H      2.796080543300  -2.796080543300   1.918244302400 AA    5.283826449062  -5.283826449062   3.624956371543 Bohr   0.0

nuclear repulsion = 3455.30471244119
number of shells = 192
number of NR pGTOs = 1065
number of NR cGTOs = 674
basis = {'C': 'cc-pvdz', 'H': 'cc-pvdz', 'O': 'cc-pvtz', 'Al': 'cc-pvtz', 'Fe': 'cc-pvtz'}
ecp = {}
CPU time:         2.43


******** <class 'pyscf.df.df_jk.DFROHF'> ********
method = DFROHF
initial guess = atom
damping factor = 0
level_shift factor = 0
DIIS = <class 'pyscf.scf.diis.CDIIS'>
diis_start_cycle = 1
diis_space = 8
diis_damp = 0
SCF conv_tol = 1e-09
SCF conv_tol_grad = None
SCF max_cycles = 1
direct_scf = False
chkfile to save SCF result = /scratch/local/jobs/17478234/tmp9uwb7fdi
max_memory 128000 MB (current use 78 MB)
num. doubly occ = 101  num. singly occ = 9
Set gradient conv threshold to 3.16228e-05
Initial guess from the superpostion of atomic densties.
Spherically averaged atomic HF for {'Al', 'H', 'C', 'Fe', 'O'}


******** <class 'pyscf.scf.atom_hf.AtomSphAverageRHF'> ********
method = AtomSphAverageRHF
initial guess = minao
damping factor = 0
level_shift factor = 0
DIIS = <class 'pyscf.scf.diis.CDIIS'>
diis_start_cycle = 1
diis_space = 8
diis_damp = 0
SCF conv_tol = 1e-09
SCF conv_tol_grad = None
SCF max_cycles = 50
direct_scf = True
direct_scf_tol = 1e-13
chkfile to save SCF result = /scratch/local/jobs/17478234/tmpwloqb0ee
max_memory 128000 MB (current use 78 MB)
atom = O
Set gradient conv threshold to 3.16228e-05
Initial guess from minao.
init E= -74.2776996160121
cycle= 1 E= -74.2879632957298  delta_E= -0.0103  |g|=    0  |ddm|= 0.12
cycle= 2 E= -74.2889455295058  delta_E= -0.000982  |g|=    0  |ddm|= 0.0571
cycle= 3 E= -74.2891874928552  delta_E= -0.000242  |g|=    0  |ddm|= 0.0164
cycle= 4 E= -74.2891907662377  delta_E= -3.27e-06  |g|=    0  |ddm|= 0.00334
cycle= 5 E= -74.2891907667003  delta_E= -4.63e-10  |g|=    0  |ddm|= 2.73e-05
Extra cycle  E= -74.2891907667016  delta_E= -1.35e-12  |g|=    0  |ddm|= 2.08e-06
Atomic HF for atom  O  converged. SCF energy = -74.2891907667016



******** <class 'pyscf.scf.atom_hf.AtomSphAverageRHF'> ********
method = AtomSphAverageRHF
initial guess = minao
damping factor = 0
level_shift factor = 0
DIIS = <class 'pyscf.scf.diis.CDIIS'>
diis_start_cycle = 1
diis_space = 8
diis_damp = 0
SCF conv_tol = 1e-09
SCF conv_tol_grad = None
SCF max_cycles = 50
direct_scf = True
direct_scf_tol = 1e-13
chkfile to save SCF result = /scratch/local/jobs/17478234/tmphduv57n0
max_memory 128000 MB (current use 101 MB)
atom = C
Set gradient conv threshold to 3.16228e-05
Initial guess from minao.
init E= -37.2786538116583
cycle= 1 E= -37.3229525149147  delta_E= -0.0443  |g|=    0  |ddm|= 0.403
cycle= 2 E= -37.3269979443145  delta_E= -0.00405  |g|=    0  |ddm|= 0.158
cycle= 3 E= -37.327416890501  delta_E= -0.000419  |g|=    0  |ddm|= 0.0324
cycle= 4 E= -37.3274218270201  delta_E= -4.94e-06  |g|=    0  |ddm|= 0.00651
cycle= 5 E= -37.3274218271775  delta_E= -1.57e-10  |g|=    0  |ddm|= 2.35e-05
Extra cycle  E= -37.3274218271781  delta_E= -6.47e-13  |g|=    0  |ddm|= 2.26e-06
Atomic HF for atom  C  converged. SCF energy = -37.3274218271781



******** 1 electron system ********
Atomic HF for atom  H  converged. SCF energy = -0.499278403419583



******** <class 'pyscf.scf.atom_hf.AtomSphAverageRHF'> ********
method = AtomSphAverageRHF
initial guess = minao
damping factor = 0
level_shift factor = 0
DIIS = <class 'pyscf.scf.diis.CDIIS'>
diis_start_cycle = 1
diis_space = 8
diis_damp = 0
SCF conv_tol = 1e-09
SCF conv_tol_grad = None
SCF max_cycles = 50
direct_scf = True
direct_scf_tol = 1e-13
chkfile to save SCF result = /scratch/local/jobs/17478234/tmpvx18fcuc
max_memory 128000 MB (current use 103 MB)
atom = Fe
Set gradient conv threshold to 3.16228e-05
Initial guess from minao.
init E= -1260.96738533155
cycle= 1 E= -1256.37714318082  delta_E= 4.59  |g|=    0  |ddm|= 4.24
cycle= 2 E= -1255.54237595451  delta_E= 0.835  |g|=    0  |ddm|=   15
cycle= 3 E= -1260.89038467173  delta_E= -5.35  |g|=    0  |ddm|= 13.7
cycle= 4 E= -1261.57047534209  delta_E= -0.68  |g|=    0  |ddm|= 0.824
cycle= 5 E= -1261.57622492119  delta_E= -0.00575  |g|=    0  |ddm|= 0.301
cycle= 6 E= -1261.57666902676  delta_E= -0.000444  |g|=    0  |ddm|= 0.0322
cycle= 7 E= -1261.57674274459  delta_E= -7.37e-05  |g|=    0  |ddm|= 0.0137
cycle= 8 E= -1261.57674388082  delta_E= -1.14e-06  |g|=    0  |ddm|= 0.00344
cycle= 9 E= -1261.57674388923  delta_E= -8.41e-09  |g|=    0  |ddm|= 0.000127
cycle= 10 E= -1261.57674388923  delta_E= 1.14e-12  |g|=    0  |ddm|= 3.35e-06
Extra cycle  E= -1261.57674388923  delta_E= -6.82e-13  |g|=    0  |ddm|= 3.97e-07
Atomic HF for atom  Fe  converged. SCF energy = -1261.57674388923



******** <class 'pyscf.scf.atom_hf.AtomSphAverageRHF'> ********
method = AtomSphAverageRHF
initial guess = minao
damping factor = 0
level_shift factor = 0
DIIS = <class 'pyscf.scf.diis.CDIIS'>
diis_start_cycle = 1
diis_space = 8
diis_damp = 0
SCF conv_tol = 1e-09
SCF conv_tol_grad = None
SCF max_cycles = 50
direct_scf = True
direct_scf_tol = 1e-13
chkfile to save SCF result = /scratch/local/jobs/17478234/tmpvnjjk01f
max_memory 128000 MB (current use 127 MB)
atom = Al
Set gradient conv threshold to 3.16228e-05
Initial guess from minao.
init E= -241.752580224975
cycle= 1 E= -241.774394279578  delta_E= -0.0218  |g|=    0  |ddm|= 0.33
cycle= 2 E= -241.774822880148  delta_E= -0.000429  |g|=    0  |ddm|= 0.0589
cycle= 3 E= -241.77484101355  delta_E= -1.81e-05  |g|=    0  |ddm|= 0.00725
cycle= 4 E= -241.774841578884  delta_E= -5.65e-07  |g|=    0  |ddm|= 0.00216
cycle= 5 E= -241.774841604663  delta_E= -2.58e-08  |g|=    0  |ddm|= 0.000719
cycle= 6 E= -241.774841604811  delta_E= -1.48e-10  |g|=    0  |ddm|= 5.97e-05
Extra cycle  E= -241.774841604812  delta_E= -1.28e-12  |g|=    0  |ddm|= 4.44e-06
Atomic HF for atom  Al  converged. SCF energy = -241.774841604812

******** <class 'pyscf.df.df.DF'> ********
auxbasis = None
max_memory = 128000
Even tempered Gaussians are generated as DF auxbasis for  Al H C Fe O
init E= -3975.68788353038
  HOMO = -0.042447807602904  LUMO = -0.0316668341931075
cycle= 1 E= -3969.65777955844  delta_E= 6.03  |g|= 3.14  |ddm|= 4.67
SCF not converged.
SCF energy = -3969.65777955844
Built 4 spin(local Sz)-shuffled LAS states from 1 reference LAS states
Built 28 singly-excited LAS states from 5 reference LAS states
Entering product-state fixed-point CI iteration
Cycle 0: max grad = 1.884708e-01 ; sigma = 0.000000e+00
Cycle 1: max grad = 1.229424e-05 ; sigma = 3.346305e-02
Cycle 2: max grad = 2.560975e-06 ; sigma = 8.626699e-11
Product_state fixed-point CI iteration converged after 2 cycles
Entering product-state fixed-point CI iteration
Cycle 0: max grad = 1.884708e-01 ; sigma = 0.000000e+00
Cycle 1: max grad = 5.393863e-06 ; sigma = 3.348211e-02
Cycle 2: max grad = 2.369173e-06 ; sigma = 5.243805e-12
Product_state fixed-point CI iteration converged after 2 cycles
Entering product-state fixed-point CI iteration
Cycle 0: max grad = 1.884708e-01 ; sigma = 0.000000e+00
Cycle 1: max grad = 3.475708e-06 ; sigma = 3.349033e-02
Cycle 2: max grad = 2.276478e-06 ; sigma = 6.238565e-12
Product_state fixed-point CI iteration converged after 2 cycles
Entering product-state fixed-point CI iteration
Cycle 0: max grad = 1.884708e-01 ; sigma = 0.000000e+00
Cycle 1: max grad = 3.522775e-06 ; sigma = 3.348759e-02
Cycle 2: max grad = 2.308122e-06 ; sigma = 8.562040e-12
Product_state fixed-point CI iteration converged after 2 cycles
Entering product-state fixed-point CI iteration
Cycle 0: max grad = 1.884708e-01 ; sigma = 0.000000e+00
Cycle 1: max grad = 8.368410e-06 ; sigma = 3.347392e-02
Cycle 2: max grad = 2.455328e-06 ; sigma = 1.880807e-11
Product_state fixed-point CI iteration converged after 2 cycles
Entering product-state fixed-point CI iteration
Cycle 0: max grad = 2.784311e-01 ; sigma = 0.000000e+00
Cycle 1: max grad = 4.634879e-05 ; sigma = 5.318269e-02
Cycle 2: max grad = 5.292951e-07 ; sigma = 5.085564e-08
Cycle 3: max grad = 8.523434e-10 ; sigma = 6.288303e-13
Product_state fixed-point CI iteration converged after 3 cycles
Entering product-state fixed-point CI iteration
Cycle 0: max grad = 3.067236e-01 ; sigma = 0.000000e+00
Cycle 1: max grad = 5.992311e-04 ; sigma = 1.169371e-01
Cycle 2: max grad = 2.250365e-06 ; sigma = 4.611400e-06
Cycle 3: max grad = 9.943609e-07 ; sigma = 9.102052e-12
Product_state fixed-point CI iteration converged after 3 cycles
Entering product-state fixed-point CI iteration
Cycle 0: max grad = 2.327562e-01 ; sigma = 0.000000e+00
Cycle 1: max grad = 5.648643e-04 ; sigma = 4.391494e-02
Cycle 2: max grad = 4.292256e-06 ; sigma = 2.400541e-06
Cycle 3: max grad = 8.594107e-07 ; sigma = 5.911716e-12
Product_state fixed-point CI iteration converged after 3 cycles
Entering product-state fixed-point CI iteration
Cycle 0: max grad = 3.083310e-01 ; sigma = 0.000000e+00
Cycle 1: max grad = 1.806373e-04 ; sigma = 5.815313e-03
Cycle 2: max grad = 3.471513e-06 ; sigma = 1.001354e-06
Cycle 3: max grad = 3.580480e-06 ; sigma = 1.041158e-10
Cycle 4: max grad = 1.643296e-06 ; sigma = 2.643219e-12
Product_state fixed-point CI iteration converged after 4 cycles
Entering product-state fixed-point CI iteration
Cycle 0: max grad = 2.551366e-01 ; sigma = 0.000000e+00
Cycle 1: max grad = 2.036378e-04 ; sigma = 8.150694e-02
Cycle 2: max grad = 1.928086e-06 ; sigma = 9.333423e-07
Cycle 3: max grad = 8.431799e-07 ; sigma = 2.671356e-10
Cycle 4: max grad = 4.869203e-07 ; sigma = 1.115907e-11
Product_state fixed-point CI iteration converged after 4 cycles
Entering product-state fixed-point CI iteration
Cycle 0: max grad = 3.077537e-01 ; sigma = 0.000000e+00
Cycle 1: max grad = 3.556113e-04 ; sigma = 3.436487e-02
Cycle 2: max grad = 1.955002e-06 ; sigma = 2.408482e-07
Cycle 3: max grad = 1.232657e-06 ; sigma = 1.876543e-11
Product_state fixed-point CI iteration converged after 3 cycles
Entering product-state fixed-point CI iteration
Cycle 0: max grad = 2.785850e-01 ; sigma = 0.000000e+00
Cycle 1: max grad = 4.595661e-05 ; sigma = 5.318012e-02
Cycle 2: max grad = 5.618072e-07 ; sigma = 5.927161e-08
Cycle 3: max grad = 7.166688e-10 ; sigma = 6.643575e-13
Product_state fixed-point CI iteration converged after 3 cycles
Entering product-state fixed-point CI iteration
Cycle 0: max grad = 3.067052e-01 ; sigma = 0.000000e+00
Cycle 1: max grad = 5.861469e-04 ; sigma = 1.170948e-01
Cycle 2: max grad = 2.135161e-06 ; sigma = 4.179263e-06
Cycle 3: max grad = 1.320258e-06 ; sigma = 9.016787e-12
Product_state fixed-point CI iteration converged after 3 cycles
Entering product-state fixed-point CI iteration
Cycle 0: max grad = 2.327512e-01 ; sigma = 0.000000e+00
Cycle 1: max grad = 5.626359e-04 ; sigma = 4.458519e-02
Cycle 2: max grad = 4.646999e-06 ; sigma = 4.939012e-06
Cycle 3: max grad = 6.020661e-07 ; sigma = 1.312728e-11
Product_state fixed-point CI iteration converged after 3 cycles
Entering product-state fixed-point CI iteration
Cycle 0: max grad = 3.083128e-01 ; sigma = 0.000000e+00
Cycle 1: max grad = 2.345229e-04 ; sigma = 5.828458e-03
Cycle 2: max grad = 5.566392e-06 ; sigma = 1.777866e-06
Cycle 3: max grad = 1.318146e-06 ; sigma = 3.041407e-10
Cycle 4: max grad = 1.083318e-06 ; sigma = 3.375078e-12
Product_state fixed-point CI iteration converged after 4 cycles
Entering product-state fixed-point CI iteration
Cycle 0: max grad = 2.550410e-01 ; sigma = 0.000000e+00
Cycle 1: max grad = 2.379875e-04 ; sigma = 8.171111e-02
Cycle 2: max grad = 1.927086e-06 ; sigma = 1.317811e-06
Cycle 3: max grad = 9.762213e-07 ; sigma = 3.389893e-10
Cycle 4: max grad = 5.648514e-07 ; sigma = 1.479705e-11
Product_state fixed-point CI iteration converged after 4 cycles
Entering product-state fixed-point CI iteration
Cycle 0: max grad = 3.077285e-01 ; sigma = 0.000000e+00
Cycle 1: max grad = 3.454360e-04 ; sigma = 3.460276e-02
Cycle 2: max grad = 2.317995e-06 ; sigma = 4.272844e-07
Cycle 3: max grad = 1.132493e-06 ; sigma = 8.853362e-12
Product_state fixed-point CI iteration converged after 3 cycles
Entering product-state fixed-point CI iteration
Cycle 0: max grad = 2.786705e-01 ; sigma = 0.000000e+00
Cycle 1: max grad = 4.651225e-05 ; sigma = 5.317862e-02
Cycle 2: max grad = 5.794670e-07 ; sigma = 6.407411e-08
Cycle 3: max grad = 6.451019e-10 ; sigma = 7.034373e-13
Product_state fixed-point CI iteration converged after 3 cycles
Entering product-state fixed-point CI iteration
Cycle 0: max grad = 3.067015e-01 ; sigma = 0.000000e+00
Cycle 1: max grad = 5.835233e-04 ; sigma = 1.171264e-01
Cycle 2: max grad = 2.112375e-06 ; sigma = 4.118257e-06
Cycle 3: max grad = 1.202589e-06 ; sigma = 7.382539e-12
Product_state fixed-point CI iteration converged after 3 cycles
Entering product-state fixed-point CI iteration
Cycle 0: max grad = 2.327502e-01 ; sigma = 0.000000e+00
Cycle 1: max grad = 5.629732e-04 ; sigma = 4.471923e-02
Cycle 2: max grad = 4.715402e-06 ; sigma = 5.349624e-06
Cycle 3: max grad = 5.617916e-07 ; sigma = 1.448086e-11
Product_state fixed-point CI iteration converged after 3 cycles
Entering product-state fixed-point CI iteration
Cycle 0: max grad = 3.083092e-01 ; sigma = 0.000000e+00
Cycle 1: max grad = 2.491446e-04 ; sigma = 5.831027e-03
Cycle 2: max grad = 6.002161e-06 ; sigma = 1.870328e-06
Cycle 3: max grad = 1.760538e-06 ; sigma = 3.921983e-10
Cycle 4: max grad = 1.220893e-06 ; sigma = 1.053024e-11
Product_state fixed-point CI iteration converged after 4 cycles
Entering product-state fixed-point CI iteration
Cycle 0: max grad = 2.550219e-01 ; sigma = 0.000000e+00
Cycle 1: max grad = 2.449739e-04 ; sigma = 8.175297e-02
Cycle 2: max grad = 1.955722e-06 ; sigma = 1.402521e-06
Cycle 3: max grad = 1.005238e-06 ; sigma = 3.552145e-10
Cycle 4: max grad = 5.831845e-07 ; sigma = 1.566747e-11
Product_state fixed-point CI iteration converged after 4 cycles
Entering product-state fixed-point CI iteration
Cycle 0: max grad = 3.077235e-01 ; sigma = 0.000000e+00
Cycle 1: max grad = 3.433519e-04 ; sigma = 3.465135e-02
Cycle 2: max grad = 2.389028e-06 ; sigma = 4.710340e-07
Cycle 3: max grad = 1.062282e-06 ; sigma = 6.544099e-12
Product_state fixed-point CI iteration converged after 3 cycles
Entering product-state fixed-point CI iteration
Cycle 0: max grad = 2.786876e-01 ; sigma = 0.000000e+00
Cycle 1: max grad = 4.673089e-05 ; sigma = 5.317831e-02
Cycle 2: max grad = 5.829607e-07 ; sigma = 6.504435e-08
Cycle 3: max grad = 6.311482e-10 ; sigma = 6.536993e-13
Product_state fixed-point CI iteration converged after 3 cycles
Entering product-state fixed-point CI iteration
Cycle 0: max grad = 3.067125e-01 ; sigma = 0.000000e+00
Cycle 1: max grad = 5.913872e-04 ; sigma = 1.170316e-01
Cycle 2: max grad = 2.179901e-06 ; sigma = 4.326966e-06
Cycle 3: max grad = 2.905984e-07 ; sigma = 7.290168e-12
Product_state fixed-point CI iteration converged after 3 cycles
Entering product-state fixed-point CI iteration
Cycle 0: max grad = 2.327532e-01 ; sigma = 0.000000e+00
Cycle 1: max grad = 5.619537e-04 ; sigma = 4.431709e-02
Cycle 2: max grad = 4.507687e-06 ; sigma = 4.019992e-06
Cycle 3: max grad = 6.936838e-07 ; sigma = 1.057998e-11
Product_state fixed-point CI iteration converged after 3 cycles
Entering product-state fixed-point CI iteration
Cycle 0: max grad = 3.083201e-01 ; sigma = 0.000000e+00
Cycle 1: max grad = 2.055908e-04 ; sigma = 5.823260e-03
Cycle 2: max grad = 4.711353e-06 ; sigma = 1.531160e-06
Cycle 3: max grad = 2.353117e-06 ; sigma = 2.384155e-10
Cycle 4: max grad = 1.042747e-06 ; sigma = 9.166001e-12
Product_state fixed-point CI iteration converged after 4 cycles
Entering product-state fixed-point CI iteration
Cycle 0: max grad = 2.550792e-01 ; sigma = 0.000000e+00
Cycle 1: max grad = 2.241311e-04 ; sigma = 8.162841e-02
Cycle 2: max grad = 1.913730e-06 ; sigma = 1.156262e-06
Cycle 3: max grad = 9.208399e-07 ; sigma = 3.084715e-10
Cycle 4: max grad = 5.292846e-07 ; sigma = 1.304556e-11
Product_state fixed-point CI iteration converged after 4 cycles
Entering product-state fixed-point CI iteration
Cycle 0: max grad = 3.077386e-01 ; sigma = 0.000000e+00
Cycle 1: max grad = 3.495559e-04 ; sigma = 3.450660e-02
Cycle 2: max grad = 2.174276e-06 ; sigma = 3.461726e-07
Cycle 3: max grad = 1.213587e-06 ; sigma = 1.325162e-11
Product_state fixed-point CI iteration converged after 3 cycles
Entering product-state fixed-point CI iteration
Cycle 0: max grad = 2.786363e-01 ; sigma = 0.000000e+00
Cycle 1: max grad = 4.607566e-05 ; sigma = 5.317923e-02
Cycle 2: max grad = 5.724407e-07 ; sigma = 6.214312e-08
Cycle 3: max grad = 6.733791e-10 ; sigma = 6.608047e-13
Product_state fixed-point CI iteration converged after 3 cycles
Entering product-state fixed-point CI iteration
Cycle 0: max grad = 2.327602e-01 ; sigma = 0.000000e+00
Cycle 1: max grad = 6.209126e-04 ; sigma = 4.337872e-02
Cycle 2: max grad = 3.992423e-06 ; sigma = 1.978465e-07
Cycle 3: max grad = 1.137854e-06 ; sigma = 3.957723e-12
Product_state fixed-point CI iteration converged after 3 cycles
Entering product-state fixed-point CI iteration
Cycle 0: max grad = 3.077738e-01 ; sigma = 0.000000e+00
Cycle 1: max grad = 3.634427e-04 ; sigma = 3.418067e-02
Cycle 2: max grad = 3.346335e-06 ; sigma = 1.317945e-07
Cycle 3: max grad = 4.962140e-07 ; sigma = 9.585222e-12
Product_state fixed-point CI iteration converged after 3 cycles
Entering product-state fixed-point CI iteration
Cycle 0: max grad = 2.785166e-01 ; sigma = 0.000000e+00
Cycle 1: max grad = 4.605856e-05 ; sigma = 5.318129e-02
Cycle 2: max grad = 5.474639e-07 ; sigma = 5.549293e-08
Cycle 3: max grad = 7.759524e-10 ; sigma = 6.004086e-13
Product_state fixed-point CI iteration converged after 3 cycles
LASSCF state-average energy = -3971.89018525224
LASSCF state 0 energy = -3971.89018525224
LASSCF state 1 energy = -3971.89049467745
LASSCF state 2 energy = -3971.8906273398
LASSCF state 3 energy = -3971.89058311557
LASSCF state 4 energy = -3971.89036204604
LASSCF state 5 energy = -3969.48093908276
LASSCF state 6 energy = -3970.98995513759
LASSCF state 7 energy = -3969.569277641
LASSCF state 8 energy = -3971.5111195471
LASSCF state 9 energy = -3969.35032714229
LASSCF state 10 energy = -3971.64263382622
LASSCF state 11 energy = -3969.48199401442
LASSCF state 12 energy = -3970.99011278563
LASSCF state 13 energy = -3969.56971596364
LASSCF state 14 energy = -3971.51146460594
LASSCF state 15 energy = -3969.3507335344
LASSCF state 16 energy = -3971.64312475168
LASSCF state 17 energy = -3969.48258018069
LASSCF state 18 energy = -3970.99014433942
LASSCF state 19 energy = -3969.56980395116
LASSCF state 20 energy = -3971.51153490949
LASSCF state 21 energy = -3969.35081586567
LASSCF state 22 energy = -3971.64322411903
LASSCF state 23 energy = -3969.48269742185
LASSCF state 24 energy = -3970.99004970236
LASSCF state 25 energy = -3969.56954031213
LASSCF state 26 energy = -3971.51132530586
LASSCF state 27 energy = -3969.35056993026
LASSCF state 28 energy = -3971.64292719394
LASSCF state 29 energy = -3969.48234570627
LASSCF state 30 energy = -3969.56892890982
LASSCF state 31 energy = -3971.64224828029
LASSCF state 32 energy = -3969.48152512913
Entering product-state fixed-point CI iteration
Cycle 0: max grad = 3.564989e+02 ; sigma = 0.000000e+00
Cycle 1: max grad = 5.501676e-07 ; sigma = 6.293277e-11
Product_state fixed-point CI iteration converged after 1 cycles
Entering product-state fixed-point CI iteration
Cycle 0: max grad = 3.565160e+02 ; sigma = 0.000000e+00
Cycle 1: max grad = 5.678257e-07 ; sigma = 5.988454e-11
Product_state fixed-point CI iteration converged after 1 cycles
Entering product-state fixed-point CI iteration
Cycle 0: max grad = 3.565233e+02 ; sigma = 0.000000e+00
Cycle 1: max grad = 5.658690e-07 ; sigma = 5.864820e-11
Product_state fixed-point CI iteration converged after 1 cycles
Entering product-state fixed-point CI iteration
Cycle 0: max grad = 3.565209e+02 ; sigma = 0.000000e+00
Cycle 1: max grad = 5.671531e-07 ; sigma = 5.901057e-11
Product_state fixed-point CI iteration converged after 1 cycles
Entering product-state fixed-point CI iteration
Cycle 0: max grad = 3.565086e+02 ; sigma = 0.000000e+00
Cycle 1: max grad = 5.639508e-07 ; sigma = 6.117773e-11
Product_state fixed-point CI iteration converged after 1 cycles
Entering product-state fixed-point CI iteration
Cycle 0: max grad = 1.327105e+02 ; sigma = 0.000000e+00
Cycle 1: max grad = 1.758826e-11 ; sigma = 1.065814e-14
Product_state fixed-point CI iteration converged after 1 cycles
Entering product-state fixed-point CI iteration
Cycle 0: max grad = 3.341749e+02 ; sigma = 0.000000e+00
Cycle 1: max grad = 1.688131e-06 ; sigma = 9.232792e-11
Product_state fixed-point CI iteration converged after 1 cycles
Entering product-state fixed-point CI iteration
Cycle 0: max grad = 1.275969e+02 ; sigma = 0.000000e+00
Cycle 1: max grad = 2.209185e-06 ; sigma = 6.591350e-11
Product_state fixed-point CI iteration converged after 1 cycles
Entering product-state fixed-point CI iteration
Cycle 0: max grad = 1.946887e+02 ; sigma = 0.000000e+00
Cycle 1: max grad = 1.887904e-04 ; sigma = 1.180172e-03
Cycle 2: max grad = 1.262423e-06 ; sigma = 1.799032e-07
Cycle 3: max grad = 1.285246e-06 ; sigma = 1.313794e-11
Product_state fixed-point CI iteration converged after 3 cycles
Entering product-state fixed-point CI iteration
Cycle 0: max grad = 1.939403e+02 ; sigma = 0.000000e+00
Cycle 1: max grad = 1.821577e-04 ; sigma = 1.215504e-03
Cycle 2: max grad = 1.505485e-06 ; sigma = 4.569038e-07
Cycle 3: max grad = 1.664127e-06 ; sigma = 2.281553e-11
Product_state fixed-point CI iteration converged after 3 cycles
Entering product-state fixed-point CI iteration
Cycle 0: max grad = 3.136465e+02 ; sigma = 0.000000e+00
Cycle 1: max grad = 9.127444e-07 ; sigma = 3.275602e-11
Product_state fixed-point CI iteration converged after 1 cycles
Entering product-state fixed-point CI iteration
Cycle 0: max grad = 1.327221e+02 ; sigma = 0.000000e+00
Cycle 1: max grad = 1.647747e-11 ; sigma = 4.263256e-14
Product_state fixed-point CI iteration converged after 1 cycles
Entering product-state fixed-point CI iteration
Cycle 0: max grad = 3.340103e+02 ; sigma = 0.000000e+00
Cycle 1: max grad = 8.741036e-07 ; sigma = 9.041656e-11
Product_state fixed-point CI iteration converged after 1 cycles
Entering product-state fixed-point CI iteration
Cycle 0: max grad = 1.274683e+02 ; sigma = 0.000000e+00
Cycle 1: max grad = 2.283647e-06 ; sigma = 8.442669e-11
Product_state fixed-point CI iteration converged after 1 cycles
Entering product-state fixed-point CI iteration
Cycle 0: max grad = 3.135719e+02 ; sigma = 0.000000e+00
Cycle 1: max grad = 1.582637e-04 ; sigma = 1.431940e-03
Cycle 2: max grad = 1.881342e-06 ; sigma = 5.088389e-07
Cycle 3: max grad = 1.780321e-06 ; sigma = 3.358096e-10
Cycle 4: max grad = 9.418955e-07 ; sigma = 5.854872e-12
Product_state fixed-point CI iteration converged after 4 cycles
Entering product-state fixed-point CI iteration
Cycle 0: max grad = 1.915805e+02 ; sigma = 0.000000e+00
Cycle 1: max grad = 1.650850e-04 ; sigma = 1.541943e-03
Cycle 2: max grad = 1.151018e-06 ; sigma = 2.170416e-07
Cycle 3: max grad = 1.122704e-06 ; sigma = 1.837108e-11
Product_state fixed-point CI iteration converged after 3 cycles
Entering product-state fixed-point CI iteration
Cycle 0: max grad = 1.326653e+02 ; sigma = 0.000000e+00
Cycle 1: max grad = 9.975459e-07 ; sigma = 2.376055e-11
Product_state fixed-point CI iteration converged after 1 cycles
Entering product-state fixed-point CI iteration
Cycle 0: max grad = 1.327285e+02 ; sigma = 0.000000e+00
Cycle 1: max grad = 1.596367e-11 ; sigma = 2.842171e-14
Product_state fixed-point CI iteration converged after 1 cycles
Entering product-state fixed-point CI iteration
Cycle 0: max grad = 3.339820e+02 ; sigma = 0.000000e+00
Cycle 1: max grad = 9.449528e-07 ; sigma = 7.767653e-11
Product_state fixed-point CI iteration converged after 1 cycles
Entering product-state fixed-point CI iteration
Cycle 0: max grad = 1.274429e+02 ; sigma = 0.000000e+00
Cycle 1: max grad = 2.434847e-06 ; sigma = 9.217871e-11
Product_state fixed-point CI iteration converged after 1 cycles
Entering product-state fixed-point CI iteration
Cycle 0: max grad = 3.136626e+02 ; sigma = 0.000000e+00
Cycle 1: max grad = 1.524926e-04 ; sigma = 1.484257e-03
Cycle 2: max grad = 2.256044e-06 ; sigma = 8.707080e-07
Cycle 3: max grad = 1.417164e-06 ; sigma = 8.458514e-10
Cycle 4: max grad = 9.492395e-07 ; sigma = 1.172396e-11
Product_state fixed-point CI iteration converged after 4 cycles
Entering product-state fixed-point CI iteration
Cycle 0: max grad = 1.911002e+02 ; sigma = 0.000000e+00
Cycle 1: max grad = 1.618214e-04 ; sigma = 1.608640e-03
Cycle 2: max grad = 1.059836e-06 ; sigma = 1.826367e-07
Cycle 3: max grad = 1.010448e-06 ; sigma = 1.769962e-11
Product_state fixed-point CI iteration converged after 3 cycles
Entering product-state fixed-point CI iteration
Cycle 0: max grad = 1.326664e+02 ; sigma = 0.000000e+00
Cycle 1: max grad = 9.882782e-07 ; sigma = 2.192024e-11
Product_state fixed-point CI iteration converged after 1 cycles
Entering product-state fixed-point CI iteration
Cycle 0: max grad = 1.327298e+02 ; sigma = 0.000000e+00
Cycle 1: max grad = 1.587193e-11 ; sigma = 3.197442e-14
Product_state fixed-point CI iteration converged after 1 cycles
Entering product-state fixed-point CI iteration
Cycle 0: max grad = 3.340748e+02 ; sigma = 0.000000e+00
Cycle 1: max grad = 8.192362e-07 ; sigma = 1.216449e-11
Product_state fixed-point CI iteration converged after 1 cycles
Entering product-state fixed-point CI iteration
Cycle 0: max grad = 1.275195e+02 ; sigma = 0.000000e+00
Cycle 1: max grad = 2.110493e-06 ; sigma = 7.355538e-11
Product_state fixed-point CI iteration converged after 1 cycles
Entering product-state fixed-point CI iteration
Cycle 0: max grad = 3.133840e+02 ; sigma = 0.000000e+00
Cycle 1: max grad = 1.703431e-04 ; sigma = 1.329262e-03
Cycle 2: max grad = 1.133189e-06 ; sigma = 9.443400e-08
Cycle 3: max grad = 8.726955e-07 ; sigma = 2.208367e-11
Product_state fixed-point CI iteration converged after 3 cycles
Entering product-state fixed-point CI iteration
Cycle 0: max grad = 1.925331e+02 ; sigma = 0.000000e+00
Cycle 1: max grad = 1.717432e-04 ; sigma = 1.409890e-03
Cycle 2: max grad = 1.334664e-06 ; sigma = 2.990460e-07
Cycle 3: max grad = 1.300597e-06 ; sigma = 1.998046e-11
Product_state fixed-point CI iteration converged after 3 cycles
Entering product-state fixed-point CI iteration
Cycle 0: max grad = 1.326632e+02 ; sigma = 0.000000e+00
Cycle 1: max grad = 1.023242e-06 ; sigma = 2.756195e-11
Product_state fixed-point CI iteration converged after 1 cycles
Entering product-state fixed-point CI iteration
Cycle 0: max grad = 1.327260e+02 ; sigma = 0.000000e+00
Cycle 1: max grad = 1.615844e-11 ; sigma = 1.385558e-13
Product_state fixed-point CI iteration converged after 1 cycles
Entering product-state fixed-point CI iteration
Cycle 0: max grad = 1.277010e+02 ; sigma = 0.000000e+00
Cycle 1: max grad = 1.407655e-06 ; sigma = 6.859580e-11
Product_state fixed-point CI iteration converged after 1 cycles
Entering product-state fixed-point CI iteration
Cycle 0: max grad = 3.130803e+02 ; sigma = 0.000000e+00
Cycle 1: max grad = 7.840909e-07 ; sigma = 1.079314e-11
Product_state fixed-point CI iteration converged after 1 cycles
Entering product-state fixed-point CI iteration
Cycle 0: max grad = 1.327169e+02 ; sigma = 0.000000e+00
Cycle 1: max grad = 1.694322e-11 ; sigma = 3.197442e-14
Product_state fixed-point CI iteration converged after 1 cycles
LASSCF state-average energy = -3971.8901852523
LASSCF state 0 energy = -3971.8901852523
LASSCF state 1 energy = -3971.89049467751
LASSCF state 2 energy = -3971.89062733986
LASSCF state 3 energy = -3971.89058311563
LASSCF state 4 energy = -3971.89036204611
LASSCF state 5 energy = -3969.48093908276
LASSCF state 6 energy = -3970.98995513768
LASSCF state 7 energy = -3969.56927764107
LASSCF state 8 energy = -3971.51229990125
LASSCF state 9 energy = -3969.35154310362
LASSCF state 10 energy = -3971.64263382626
LASSCF state 11 energy = -3969.48199401442
LASSCF state 12 energy = -3970.99011278572
LASSCF state 13 energy = -3969.56971596372
LASSCF state 14 energy = -3971.51289705149
LASSCF state 15 energy = -3969.3522756948
LASSCF state 16 energy = -3971.6431247517
LASSCF state 17 energy = -3969.48258018069
LASSCF state 18 energy = -3970.9901443395
LASSCF state 19 energy = -3969.56980395125
LASSCF state 20 energy = -3971.51302003565
LASSCF state 21 energy = -3969.35242468793
LASSCF state 22 energy = -3971.64322411905
LASSCF state 23 energy = -3969.48269742185
LASSCF state 24 energy = -3970.99004970238
LASSCF state 25 energy = -3969.56954031221
LASSCF state 26 energy = -3971.51265466073
LASSCF state 27 energy = -3969.35198011902
LASSCF state 28 energy = -3971.64292719396
LASSCF state 29 energy = -3969.48234570627
LASSCF state 30 energy = -3969.56892890989
LASSCF state 31 energy = -3971.6422482803
LASSCF state 32 energy = -3969.48152512913
LASSI op_o0 memory check: 243510.634368 MB needed of 120077.18912 MB available (128000 MB max)
Symmetry analysis of 33 LAS rootspaces:
 ix            Energy  <S**2>  Neleca  Nelecb  Nelec   Wfnsym
  0  -3971.8901852523   4.750       6       5      11       A
  1  -3971.8904946775  11.750       6       5      11       A
  2  -3971.8906273399  14.750       6       5      11       A
  3  -3971.8905831156  13.750       6       5      11       A
  4  -3971.8903620461   8.750       6       5      11       A
  5  -3969.4809390828   5.750       6       5      11       A
  6  -3970.9899551377   3.750       6       5      11       A
  7  -3969.5692776411   8.750       6       5      11       A
  8  -3971.5122999013   3.750       6       5      11       A
  9  -3969.3515431036   9.750       6       5      11       A
 10  -3971.6426338263   8.750       6       5      11       A
 11  -3969.4819940144  14.750       6       5      11       A
 12  -3970.9901127857   8.750       6       5      11       A
 13  -3969.5697159637  13.750       6       5      11       A
 14  -3971.5128970515   8.750       6       5      11       A
 15  -3969.3522756948  14.750       6       5      11       A
 16  -3971.6431247517  13.750       6       5      11       A
 17  -3969.4825801807  19.750       6       5      11       A
 18  -3970.9901443395   9.750       6       5      11       A
 19  -3969.5698039513  14.750       6       5      11       A
 20  -3971.5130200357   9.750       6       5      11       A
 21  -3969.3524246879  15.750       6       5      11       A
 22  -3971.6432241191  14.750       6       5      11       A
 23  -3969.4826974219  20.750       6       5      11       A
 24  -3970.9900497024   6.750       6       5      11       A
 25  -3969.5695403122  11.750       6       5      11       A
 26  -3971.5126546607   6.750       6       5      11       A
 27  -3969.3519801190  12.750       6       5      11       A
 28  -3971.6429271940  11.750       6       5      11       A
 29  -3969.4823457063  17.750       6       5      11       A
 30  -3969.5689289099   4.750       6       5      11       A
 31  -3971.6422482803   4.750       6       5      11       A
 32  -3969.4815251291  10.750       6       5      11       A
Build + diag H matrix LASSI symmetry block 0
['neleca', 'nelecb', 'irrep'] = (6, 5, 0)
(33 rootspaces; 825 states)
LASSI eigenvalues (825 total):
 ix            Energy  <S**2>  Neleca  Nelecb  Wfnsym
  0  -3971.8912989909  24.750       6       5       A
  1  -3971.8912121623  15.750       6       5       A
  2  -3971.8911509888   8.749       6       5       A
  3  -3971.8911105690   3.748       6       5       A
  4  -3971.8910870341   0.753       6       5       A
  5  -3971.8714983941   0.751       6       5       A
  6  -3971.8714685068   3.750       6       5       A
  7  -3971.8714188739   8.750       6       5       A
  8  -3971.8713488028  15.750       6       5       A
  9  -3971.8712576427  24.750       6       5       A
 10  -3971.8702459498  24.750       6       5       A
 11  -3971.8698804826  15.750       6       5       A
 12  -3971.8695958436   8.750       6       5       A
 13  -3971.8693922189   3.750       6       5       A
 14  -3971.8692701356   0.750       6       5       A
 15  -3971.8472837741  24.750       6       5       A
 16  -3971.8464360856  15.750       6       5       A
 17  -3971.8457715775   8.750       6       5       A
 18  -3971.8452942493   3.750       6       5       A
 19  -3971.8450056415   0.750       6       5       A
 20  -3971.8246012282  24.750       6       5       A
 21  -3971.8241256299  15.750       6       5       A
 22  -3971.8237563660   8.750       6       5       A
 23  -3971.8234929384   3.750       6       5       A
 24  -3971.8233346837   0.750       6       5       A
 25  -3971.6433410903  24.750       6       5       A
 26  -3971.6427252585  15.750       6       5       A
 27  -3971.6422868215   8.750       6       5       A
 28  -3971.6419955213   3.750       6       5       A
 29  -3971.6418294655   0.750       6       5       A
 30  -3971.6416932078  24.750       6       5       A
 31  -3971.6405263881  15.750       6       5       A
 32  -3971.6396169797   8.750       6       5       A
 33  -3971.6389664095   3.750       6       5       A
 34  -3971.6385756446   0.750       6       5       A
 35  -3971.6357237432  24.750       6       5       A
 36  -3971.6345224799  15.750       6       5       A
 37  -3971.6335834742   8.750       6       5       A
 38  -3971.6329105295   3.750       6       5       A
 39  -3971.6325059225   0.750       6       5       A
 40  -3971.6268210662  24.750       6       5       A
 41  -3971.6264433716  15.750       6       5       A
 42  -3971.6261121145   8.750       6       5       A
 43  -3971.6258549937   3.750       6       5       A
 44  -3971.6256924269   0.750       6       5       A
 45  -3971.6008156592  24.750       6       5       A
 46  -3971.5994866009  15.750       6       5       A
 47  -3971.5984524767   8.750       6       5       A
 48  -3971.5977135982   3.750       6       5       A
 49  -3971.5972701489   0.750       6       5       A
 50  -3971.5137863315  15.750       6       5       A
 51  -3971.5128976117   8.750       6       5       A
 52  -3971.5122995905   3.750       6       5       A
 53  -3971.5119548079   0.750       6       5       A
 54  -3971.5118117035  15.750       6       5       A
 55  -3971.5115031926  15.750       6       5       A
 56  -3971.5111797343   8.750       6       5       A
 57  -3971.5107413343   3.750       6       5       A
 58  -3971.5104828975   0.750       6       5       A
 59  -3971.5102214543   8.750       6       5       A
 60  -3971.5098388972  15.750       6       5       A
 61  -3971.5095243948  15.750       6       5       A
 62  -3971.5093495152   3.750       6       5       A
 63  -3971.5090236927   8.750       6       5       A
 64  -3971.5088456958   0.750       6       5       A
 65  -3971.5088201241   8.750       6       5       A
 66  -3971.5084540737   3.750       6       5       A
 67  -3971.5083253388   3.750       6       5       A
 68  -3971.5081260692   0.750       6       5       A
 69  -3971.5080224702   0.750       6       5       A
 70  -3971.5076128405  15.750       6       5       A
 71  -3971.5065439554   8.750       6       5       A
 72  -3971.5057478427   3.750       6       5       A
 73  -3971.5055141111  15.750       6       5       A
 74  -3971.5052547644   0.750       6       5       A
 75  -3971.5042031844   8.750       6       5       A
 76  -3971.5035221574  15.750       6       5       A
 77  -3971.5033098474   3.750       6       5       A
 78  -3971.5027925801   0.750       6       5       A
 79  -3971.5027441745   8.750       6       5       A
 80  -3971.5022029069   3.750       6       5       A
 81  -3971.5018832030   0.750       6       5       A
 82  -3971.5016662912  15.750       6       5       A
 83  -3971.5005671972   8.750       6       5       A
 84  -3971.4997529204   3.750       6       5       A
 85  -3971.4992503176   0.750       6       5       A
 86  -3971.4973697262  15.750       6       5       A
 87  -3971.4967036913   8.750       6       5       A
 88  -3971.4962232027   3.750       6       5       A
 89  -3971.4959336577   0.750       6       5       A
 90  -3971.4958643097  15.750       6       5       A
 91  -3971.4954288428   8.750       6       5       A
 92  -3971.4951536272   3.750       6       5       A
 93  -3971.4949972134   0.750       6       5       A
 94  -3971.4943233454  15.750       6       5       A
 95  -3971.4942418776  15.750       6       5       A
 96  -3971.4936259317   8.750       6       5       A
 97  -3971.4934308419  15.750       6       5       A
 98  -3971.4934014653   8.750       6       5       A
 99  -3971.4930994917   3.750       6       5       A
Remaining 725 eigenvalues truncated; increase verbosity to print them all
Natural-orbital analysis for state(s) [0, 1, 2, 3, 4]
LASSI op_o0 memory check: 243510.634368 MB needed of 119044.251648 MB available (128000 MB max)
Delocalized natural orbitals do not reflect LAS fragmentation
Natural occ [1.98721789 1.02775329 1.00336731 1.00307733 1.00033361 0.99777983
 0.99370958 0.99100503 0.99079    0.96615771 0.01193743 0.00422611
 0.00406954 0.00389718 0.00347739 0.00229198 0.00228484 0.00226974
 0.0022434  0.00211081]
Natural orbital (expansion on AOs) in CAS space
               #1        #2        #3        #4        #5       
0 O 1s          -0.00011  -0.00020   0.00020   0.00030  -0.00019
0 O 2s           0.00160   0.00118  -0.00098   0.00184   0.00088
0 O 3s           0.00057   0.00043  -0.00039   0.00045   0.00032
0 O 4s           0.00475   0.00436  -0.00247  -0.00233   0.00347
0 O 2px          0.00478   0.00007   0.00040   0.00560  -0.00053
0 O 2py          0.00049  -0.00153   0.00236   0.00139  -0.00115
0 O 2pz          0.00216   0.00110  -0.00210  -0.00223   0.00066
0 O 3px          0.00570   0.00030   0.00055   0.00673  -0.00031
0 O 3py          0.00042  -0.00161   0.00240   0.00140  -0.00132
0 O 3pz          0.00283   0.00122  -0.00228  -0.00268   0.00062
0 O 4px          0.00793  -0.00027   0.00055   0.00694  -0.00157
0 O 4py          0.00004  -0.00362   0.00527   0.00264  -0.00198
0 O 4pz          0.00399   0.00193  -0.00473  -0.00174   0.00133
0 O 3dxy         0.00012   0.00003  -0.00004   0.00003  -0.00002
0 O 3dyz         0.00007   0.00002  -0.00001   0.00006   0.00002
0 O 3dz^2       -0.00003   0.00002  -0.00002  -0.00007  -0.00001
0 O 3dxz        -0.00004   0.00002  -0.00001   0.00001   0.00006
0 O 3dx2-y2      0.00004   0.00003  -0.00004  -0.00006   0.00001
0 O 4dxy         0.00026  -0.00016   0.00006  -0.00018  -0.00031
0 O 4dyz         0.00011   0.00022  -0.00017   0.00024   0.00036
0 O 4dz^2       -0.00016  -0.00016   0.00021  -0.00016  -0.00016
0 O 4dxz         0.00015   0.00000  -0.00014   0.00038   0.00015
0 O 4dx2-y2     -0.00017  -0.00003   0.00012  -0.00017  -0.00015
0 O 4f-3         0.00003   0.00003  -0.00006  -0.00000   0.00004
0 O 4f-2         0.00003   0.00000  -0.00002  -0.00006  -0.00004
0 O 4f-1        -0.00001   0.00003  -0.00005   0.00005   0.00005
0 O 4f+0         0.00001   0.00001   0.00000   0.00006   0.00003
0 O 4f+1        -0.00001   0.00000   0.00001  -0.00003  -0.00000
0 O 4f+2         0.00000  -0.00001   0.00001   0.00010   0.00004
0 O 4f+3         0.00003  -0.00001   0.00000  -0.00005  -0.00007
1 O 1s           0.00030   0.00007   0.00020   0.00018  -0.00001
1 O 2s           0.00692  -0.00829   0.01037  -0.00198  -0.02032
1 O 3s           0.00195  -0.00239   0.00287  -0.00066  -0.00592
1 O 4s           0.01121  -0.01649   0.01531  -0.00637  -0.03602
1 O 2px         -0.00521  -0.00825   0.01219  -0.00361  -0.01077
1 O 2py         -0.00720  -0.00467   0.00844   0.00684   0.00156
1 O 2pz         -0.00499   0.00886  -0.01160  -0.00892   0.01506
1 O 3px         -0.00589  -0.01084   0.01575  -0.00452  -0.01384
1 O 3py         -0.00807  -0.00601   0.01082   0.00849   0.00077
1 O 3pz         -0.00607   0.01174  -0.01511  -0.01102   0.01945
1 O 4px         -0.01106  -0.01201   0.01528  -0.00409  -0.01556
1 O 4py         -0.01196  -0.00797   0.01280   0.00622   0.00027
1 O 4pz         -0.00715   0.01302  -0.01508  -0.01366   0.02236
1 O 3dxy         0.00023  -0.00002  -0.00009  -0.00045  -0.00043
1 O 3dyz        -0.00085  -0.00007   0.00014   0.00021   0.00050
1 O 3dz^2       -0.00066   0.00022  -0.00017  -0.00053   0.00028
1 O 3dxz         0.00003  -0.00042   0.00043  -0.00010  -0.00077
1 O 3dx2-y2      0.00051   0.00032  -0.00038   0.00012   0.00015
1 O 4dxy         0.00037  -0.00016  -0.00051  -0.00116  -0.00110
1 O 4dyz        -0.00243  -0.00020   0.00033   0.00053   0.00131
1 O 4dz^2       -0.00269   0.00053  -0.00029  -0.00188   0.00055
1 O 4dxz        -0.00054  -0.00103   0.00119   0.00002  -0.00157
1 O 4dx2-y2      0.00215   0.00109  -0.00141   0.00083   0.00041
1 O 4f-3         0.00024   0.00013  -0.00029   0.00004   0.00006
1 O 4f-2        -0.00012  -0.00017   0.00030   0.00010  -0.00022
1 O 4f-1         0.00007   0.00016  -0.00015  -0.00032   0.00013
1 O 4f+0         0.00040  -0.00003  -0.00004   0.00008  -0.00010
1 O 4f+1        -0.00010   0.00013  -0.00007   0.00004   0.00023
1 O 4f+2         0.00014  -0.00009   0.00001  -0.00015  -0.00025
1 O 4f+3        -0.00005   0.00004   0.00004   0.00023   0.00014
2 C 1s          -0.00026   0.00016  -0.00000   0.00044   0.00063
2 C 2s          -0.00602   0.00112   0.00006   0.00501   0.00836
2 C 3s          -0.00880  -0.00158   0.00154   0.00769   0.00420
2 C 2px         -0.01696  -0.00094   0.00283  -0.00297   0.00718
2 C 2py          0.00306  -0.00402   0.00351  -0.00455  -0.01137
2 C 2pz         -0.00538  -0.00135   0.00164  -0.00953  -0.00490
2 C 3px         -0.01328   0.00021   0.00003  -0.00434   0.00334
2 C 3py         -0.00036  -0.00382   0.00599  -0.00181  -0.00477
2 C 3pz         -0.00500  -0.00133   0.00359  -0.00513  -0.00219
2 C 3dxy         0.00216   0.00013  -0.00026   0.00116  -0.00073
2 C 3dyz         0.00084  -0.00029   0.00022   0.00132  -0.00003
2 C 3dz^2        0.00093  -0.00128   0.00175   0.00108  -0.00183
2 C 3dxz        -0.00032   0.00106  -0.00147  -0.00029   0.00159
2 C 3dx2-y2     -0.00063  -0.00206   0.00291   0.00038  -0.00238
3 H 1s           0.00138  -0.00458   0.00633   0.00233  -0.00727
3 H 2s           0.00136  -0.00523   0.00724   0.00319  -0.00904
3 H 2px         -0.00050   0.00001   0.00003   0.00004   0.00027
3 H 2py          0.00000  -0.00013   0.00002  -0.00007  -0.00033
3 H 2pz         -0.00000  -0.00010   0.00004  -0.00026  -0.00024
4 O 1s           0.00022   0.00009   0.00005  -0.00006  -0.00003
4 O 2s          -0.00049  -0.00684   0.00785  -0.00994  -0.02728
4 O 3s          -0.00027  -0.00199   0.00214  -0.00272  -0.00765
4 O 4s          -0.00309  -0.01088   0.01091  -0.01504  -0.04051
4 O 2px          0.00046  -0.00891  -0.00686   0.00519  -0.00588
4 O 2py          0.00061   0.00028  -0.01558   0.01766   0.02636
4 O 2pz         -0.00003  -0.00076   0.00997  -0.00750  -0.01916
4 O 3px          0.00066  -0.01094  -0.00882   0.00664  -0.00653
4 O 3py          0.00048   0.00032  -0.02029   0.02303   0.03371
4 O 3pz         -0.00009  -0.00116   0.01303  -0.01017  -0.02513
4 O 4px         -0.00082  -0.00919  -0.00949   0.00823  -0.00119
4 O 4py          0.00415   0.00032  -0.01793   0.02103   0.03207
4 O 4pz         -0.00138  -0.00131   0.01207  -0.00836  -0.02562
4 O 3dxy         0.00002  -0.00044   0.00001  -0.00017  -0.00092
4 O 3dyz        -0.00002  -0.00005   0.00019  -0.00016  -0.00047
4 O 3dz^2        0.00001  -0.00019  -0.00000  -0.00014  -0.00039
4 O 3dxz        -0.00004   0.00023  -0.00004  -0.00004   0.00040
4 O 3dx2-y2     -0.00006   0.00023   0.00035  -0.00044  -0.00018
4 O 4dxy        -0.00004  -0.00072   0.00017  -0.00082  -0.00180
4 O 4dyz         0.00002   0.00027   0.00051  -0.00025  -0.00046
4 O 4dz^2       -0.00016  -0.00047   0.00011  -0.00024  -0.00071
4 O 4dxz         0.00004   0.00070  -0.00035   0.00013   0.00127
4 O 4dx2-y2      0.00004   0.00083   0.00143  -0.00150  -0.00051
4 O 4f-3        -0.00003   0.00018  -0.00008   0.00013   0.00040
4 O 4f-2         0.00002  -0.00014  -0.00017   0.00007   0.00013
4 O 4f-1         0.00001  -0.00003   0.00010  -0.00011  -0.00028
4 O 4f+0         0.00001   0.00001   0.00003  -0.00005   0.00001
4 O 4f+1        -0.00001   0.00019   0.00005  -0.00001   0.00014
4 O 4f+2         0.00002  -0.00004   0.00018  -0.00016  -0.00035
4 O 4f+3         0.00005  -0.00016  -0.00031   0.00026   0.00017
5 O 1s          -0.00012   0.00022   0.00015  -0.00009  -0.00008
5 O 2s           0.00060   0.00087  -0.00139   0.00154   0.00190
5 O 3s           0.00023   0.00018  -0.00044   0.00046   0.00060
5 O 4s           0.00384  -0.00033  -0.00169   0.00402   0.00052
5 O 2px          0.00010  -0.00034  -0.00238   0.00131   0.00154
5 O 2py         -0.00134   0.00078   0.00098  -0.00061   0.00232
5 O 2pz          0.00069   0.00179   0.00228  -0.00267  -0.00219
5 O 3px          0.00031  -0.00033  -0.00270   0.00125   0.00165
5 O 3py         -0.00169   0.00096   0.00144  -0.00134   0.00242
5 O 3pz          0.00058   0.00220   0.00258  -0.00300  -0.00232
5 O 4px          0.00048  -0.00039  -0.00401   0.00274   0.00135
5 O 4py         -0.00213   0.00111   0.00044   0.00042   0.00428
5 O 4pz          0.00224   0.00314   0.00380  -0.00403  -0.00355
5 O 3dxy        -0.00000  -0.00003  -0.00005   0.00002  -0.00000
5 O 3dyz         0.00002   0.00005  -0.00003   0.00002   0.00007
5 O 3dz^2       -0.00002  -0.00003  -0.00002  -0.00002   0.00001
5 O 3dxz         0.00001  -0.00001   0.00001   0.00006   0.00002
5 O 3dx2-y2      0.00000   0.00005  -0.00000  -0.00003   0.00002
5 O 4dxy         0.00002  -0.00003   0.00030  -0.00010  -0.00046
5 O 4dyz         0.00016   0.00024  -0.00010   0.00019   0.00054
5 O 4dz^2        0.00004   0.00010   0.00016  -0.00031  -0.00028
5 O 4dxz         0.00002   0.00007   0.00001  -0.00004   0.00018
5 O 4dx2-y2      0.00029   0.00021  -0.00029   0.00036   0.00046
5 O 4f-3        -0.00002  -0.00002   0.00002  -0.00003  -0.00008
5 O 4f-2         0.00002   0.00006  -0.00001   0.00001   0.00008
5 O 4f-1        -0.00000  -0.00002  -0.00000   0.00000  -0.00001
5 O 4f+0         0.00001   0.00000  -0.00004   0.00004   0.00003
5 O 4f+1        -0.00001  -0.00004   0.00003  -0.00004  -0.00008
5 O 4f+2         0.00001   0.00002   0.00007  -0.00003  -0.00004
5 O 4f+3         0.00002   0.00003  -0.00007   0.00005   0.00011
6 C 1s           0.00007   0.00040  -0.00029  -0.00008   0.00042
6 C 2s           0.00001   0.00565  -0.00045   0.00100   0.00953
6 C 3s          -0.00352   0.00245   0.00311  -0.00038   0.00767
6 C 2px          0.00048   0.00623  -0.00246   0.00602   0.01646
6 C 2py          0.00050  -0.00756  -0.00073   0.00098  -0.01239
6 C 2pz          0.00021   0.00030  -0.00163   0.00409   0.00197
6 C 3px         -0.00106   0.00016  -0.00423   0.00460   0.00439
6 C 3py          0.00247  -0.00209   0.00048  -0.00228  -0.01041
6 C 3pz         -0.00074  -0.00005  -0.00093   0.00321   0.00534
6 C 3dxy         0.00034  -0.00101  -0.00103   0.00103  -0.00062
6 C 3dyz        -0.00013   0.00055  -0.00114   0.00067   0.00243
6 C 3dz^2        0.00020  -0.00024   0.00053  -0.00072  -0.00155
6 C 3dxz         0.00016  -0.00002   0.00132  -0.00091  -0.00230
6 C 3dx2-y2     -0.00021  -0.00012  -0.00300   0.00292   0.00458
7 H 1s           0.00030  -0.00130   0.00599  -0.00646  -0.01295
7 H 2s          -0.00125  -0.00029   0.00590  -0.00479  -0.00832
7 H 2px          0.00011   0.00018   0.00007   0.00004   0.00033
7 H 2py          0.00003  -0.00019  -0.00003   0.00019  -0.00011
7 H 2pz         -0.00005  -0.00001  -0.00004   0.00002  -0.00006
8 O 1s          -0.00007  -0.00037  -0.00011  -0.00021  -0.00006
8 O 2s          -0.00873  -0.00730  -0.02225   0.00099   0.01652
8 O 3s          -0.00263  -0.00191  -0.00649   0.00035   0.00480
8 O 4s          -0.02109  -0.01043  -0.03599   0.00130   0.02595
8 O 2px          0.00511   0.00620   0.01200   0.00679  -0.00619
8 O 2py          0.00903  -0.01105  -0.00166  -0.00241   0.01662
8 O 2pz         -0.00545   0.00971   0.01124  -0.00790  -0.00920
8 O 3px          0.00599   0.00834   0.01532   0.00822  -0.00866
8 O 3py          0.01032  -0.01440  -0.00343  -0.00288   0.02194
8 O 3pz         -0.00608   0.01301   0.01497  -0.01018  -0.01264
8 O 4px          0.00478   0.00777   0.01492   0.00732  -0.00919
8 O 4py          0.01316  -0.01546  -0.00466  -0.00458   0.02279
8 O 4pz         -0.01113   0.01139   0.01579  -0.01197  -0.01281
8 O 3dxy         0.00032  -0.00056   0.00007  -0.00028   0.00052
8 O 3dyz         0.00043  -0.00028  -0.00002  -0.00007   0.00034
8 O 3dz^2       -0.00048   0.00002  -0.00015  -0.00063   0.00001
8 O 3dxz         0.00046   0.00025   0.00090  -0.00043  -0.00045
8 O 3dx2-y2      0.00097   0.00018   0.00081   0.00033  -0.00012
8 O 4dxy         0.00040  -0.00182  -0.00012  -0.00085   0.00248
8 O 4dyz         0.00192  -0.00108   0.00008  -0.00018   0.00083
8 O 4dz^2       -0.00096   0.00026  -0.00002  -0.00259  -0.00023
8 O 4dxz         0.00100   0.00070   0.00251  -0.00198  -0.00176
8 O 4dx2-y2      0.00253   0.00068   0.00226   0.00105  -0.00074
8 O 4f-3         0.00054   0.00007   0.00025   0.00020   0.00014
8 O 4f-2         0.00009   0.00026   0.00041  -0.00014  -0.00030
8 O 4f-1        -0.00029   0.00017   0.00016  -0.00032  -0.00020
8 O 4f+0        -0.00001   0.00004   0.00002   0.00023  -0.00013
8 O 4f+1        -0.00026  -0.00001  -0.00015   0.00005  -0.00003
8 O 4f+2        -0.00053   0.00019   0.00003  -0.00009  -0.00022
8 O 4f+3        -0.00015   0.00031   0.00015   0.00016  -0.00052
9 O 1s          -0.00012   0.00022  -0.00015  -0.00009   0.00008
9 O 2s           0.00060   0.00087   0.00139   0.00155  -0.00190
9 O 3s           0.00023   0.00018   0.00044   0.00046  -0.00060
9 O 4s           0.00384  -0.00033   0.00169   0.00402  -0.00052
9 O 2px         -0.00014  -0.00079   0.00287   0.00196  -0.00217
9 O 2py         -0.00109   0.00122  -0.00147  -0.00126  -0.00170
9 O 2pz         -0.00102  -0.00135   0.00119   0.00194  -0.00223
9 O 3px          0.00007  -0.00088   0.00325   0.00196  -0.00231
9 O 3py         -0.00145   0.00151  -0.00198  -0.00206  -0.00175
9 O 3pz         -0.00108  -0.00168   0.00125   0.00206  -0.00235
9 O 4px         -0.00024  -0.00119   0.00487   0.00375  -0.00243
9 O 4py         -0.00141   0.00191  -0.00131  -0.00059  -0.00320
9 O 4pz         -0.00278  -0.00248   0.00230   0.00309  -0.00407
9 O 3dxy        -0.00000  -0.00003   0.00004   0.00003   0.00002
9 O 3dyz        -0.00001  -0.00003  -0.00004  -0.00001   0.00007
9 O 3dz^2       -0.00001  -0.00004  -0.00001  -0.00001   0.00001
9 O 3dxz        -0.00002  -0.00003   0.00002  -0.00004   0.00003
9 O 3dx2-y2     -0.00001   0.00003  -0.00001  -0.00005   0.00001
9 O 4dxy        -0.00002  -0.00009  -0.00029  -0.00012   0.00048
9 O 4dyz        -0.00024  -0.00030  -0.00001  -0.00009   0.00034
9 O 4dz^2       -0.00003   0.00001  -0.00014  -0.00033   0.00032
9 O 4dxz        -0.00008  -0.00010  -0.00023  -0.00025   0.00057
9 O 4dx2-y2      0.00022   0.00011   0.00024   0.00029  -0.00022
9 O 4f-3        -0.00002  -0.00002  -0.00004  -0.00003   0.00010
9 O 4f-2        -0.00000  -0.00004  -0.00001   0.00001   0.00004
9 O 4f-1         0.00002   0.00001   0.00000   0.00002  -0.00003
9 O 4f+0         0.00000   0.00002  -0.00000   0.00000  -0.00004
9 O 4f+1        -0.00001  -0.00003  -0.00007  -0.00006   0.00010
9 O 4f+2        -0.00003  -0.00005   0.00001  -0.00002   0.00007
9 O 4f+3         0.00001  -0.00000   0.00008   0.00005  -0.00008
10 O 1s          0.00022   0.00009  -0.00005  -0.00006   0.00003
10 O 2s         -0.00049  -0.00684  -0.00785  -0.00995   0.02728
10 O 3s         -0.00027  -0.00199  -0.00213  -0.00272   0.00765
10 O 4s         -0.00309  -0.01088  -0.01090  -0.01505   0.04051
10 O 2px         0.00048  -0.00834   0.00991   0.00772  -0.00059
10 O 2py         0.00060  -0.00028   0.01252   0.01514  -0.01989
10 O 2pz         0.00006   0.00320   0.01158   0.01032  -0.02646
10 O 3px         0.00068  -0.01019   0.01282   0.01005  -0.00188
10 O 3py         0.00046  -0.00043   0.01629   0.01963  -0.02530
10 O 3pz         0.00004   0.00414   0.01514   0.01386  -0.03416
10 O 4px        -0.00026  -0.00847   0.01311   0.01101  -0.00708
10 O 4py         0.00358  -0.00041   0.01430   0.01826  -0.02380
10 O 4pz         0.00262   0.00380   0.01343   0.01121  -0.03271
10 O 3dxy        0.00001  -0.00031   0.00004  -0.00011   0.00058
10 O 3dyz        0.00003   0.00014   0.00025   0.00036  -0.00079
10 O 3dz^2      -0.00000   0.00003   0.00010  -0.00004  -0.00019
10 O 3dxz        0.00007  -0.00043   0.00008   0.00007   0.00063
10 O 3dx2-y2    -0.00004   0.00016  -0.00028  -0.00035   0.00015
10 O 4dxy       -0.00001  -0.00050   0.00007  -0.00064   0.00114
10 O 4dyz        0.00005  -0.00014   0.00086   0.00090  -0.00114
10 O 4dz^2      -0.00011  -0.00009   0.00031   0.00009  -0.00044
10 O 4dxz       -0.00013  -0.00121   0.00007   0.00002   0.00160
10 O 4dx2-y2     0.00002   0.00050  -0.00128  -0.00135   0.00069
10 O 4f-3       -0.00002   0.00017  -0.00004   0.00005  -0.00019
10 O 4f-2       -0.00001   0.00002  -0.00027  -0.00022   0.00041
10 O 4f-1        0.00003  -0.00006  -0.00006  -0.00010   0.00021
10 O 4f+0        0.00001  -0.00016   0.00004   0.00000   0.00018
10 O 4f+1       -0.00000   0.00011  -0.00017  -0.00011   0.00022
10 O 4f+2       -0.00004   0.00019  -0.00000   0.00002  -0.00026
10 O 4f+3        0.00003  -0.00009   0.00026   0.00024  -0.00018
11 C 1s          0.00007   0.00040   0.00029  -0.00008  -0.00042
11 C 2s          0.00001   0.00565   0.00045   0.00100  -0.00953
11 C 3s         -0.00352   0.00245  -0.00311  -0.00038  -0.00766
11 C 2px         0.00042   0.00561   0.00195   0.00471  -0.01481
11 C 2py         0.00056  -0.00694   0.00124   0.00229   0.01074
11 C 2pz        -0.00019  -0.00404  -0.00197  -0.00515   0.00969
11 C 3px        -0.00072   0.00008   0.00379   0.00346  -0.00236
11 C 3py         0.00213  -0.00202  -0.00004  -0.00114   0.00838
11 C 3pz         0.00165  -0.00057  -0.00214  -0.00484   0.00896
11 C 3dxy        0.00036  -0.00105   0.00040   0.00065   0.00157
11 C 3dyz       -0.00003  -0.00005  -0.00162  -0.00118   0.00214
11 C 3dz^2       0.00024  -0.00031  -0.00162  -0.00138   0.00319
11 C 3dxz        0.00011  -0.00037   0.00016  -0.00018   0.00048
11 C 3dx2-y2    -0.00020  -0.00026   0.00282   0.00276  -0.00419
12 H 1s          0.00030  -0.00130  -0.00599  -0.00646   0.01295
12 H 2s         -0.00125  -0.00029  -0.00590  -0.00479   0.00832
12 H 2px         0.00012   0.00017  -0.00008   0.00004  -0.00033
12 H 2py         0.00002  -0.00018   0.00003   0.00019   0.00011
12 H 2pz         0.00002  -0.00009  -0.00001   0.00002   0.00006
13 O 1s          0.00030   0.00007  -0.00020   0.00018   0.00001
13 O 2s          0.00692  -0.00829  -0.01037  -0.00199   0.02032
13 O 3s          0.00195  -0.00239  -0.00287  -0.00067   0.00592
13 O 4s          0.01121  -0.01649  -0.01530  -0.00638   0.03602
13 O 2px        -0.00393  -0.01053  -0.01520  -0.00078   0.01440
13 O 2py        -0.00848  -0.00239  -0.00543   0.00400  -0.00519
13 O 2pz         0.00406  -0.00720  -0.00969   0.01108   0.01053
13 O 3px        -0.00433  -0.01385  -0.01968  -0.00102   0.01858
13 O 3py        -0.00964  -0.00300  -0.00689   0.00498  -0.00551
13 O 3pz         0.00500  -0.00952  -0.01260   0.01371   0.01397
13 O 4px        -0.00914  -0.01540  -0.01929   0.00002   0.02104
13 O 4py        -0.01388  -0.00458  -0.00878   0.00210  -0.00575
13 O 4pz         0.00635  -0.01091  -0.01324   0.01541   0.01631
13 O 3dxy        0.00052  -0.00014  -0.00001  -0.00043   0.00076
13 O 3dyz        0.00078  -0.00008  -0.00004   0.00016   0.00038
13 O 3dz^2      -0.00016   0.00002  -0.00001  -0.00049   0.00028
13 O 3dxz       -0.00030   0.00036   0.00036  -0.00032  -0.00054
13 O 3dx2-y2     0.00070   0.00043   0.00051   0.00008  -0.00022
13 O 4dxy        0.00117  -0.00043   0.00021  -0.00096   0.00182
13 O 4dyz        0.00253  -0.00021  -0.00024   0.00046   0.00097
13 O 4dz^2      -0.00132   0.00007  -0.00021  -0.00153   0.00068
13 O 4dxz       -0.00096   0.00076   0.00087  -0.00141  -0.00098
13 O 4dx2-y2     0.00279   0.00134   0.00171   0.00062  -0.00045
13 O 4f-3        0.00032   0.00012   0.00034  -0.00004  -0.00001
13 O 4f-2        0.00019   0.00007   0.00018  -0.00026  -0.00003
13 O 4f-1        0.00024   0.00002   0.00002  -0.00014   0.00008
13 O 4f+0       -0.00016  -0.00001  -0.00005  -0.00020   0.00005
13 O 4f+1       -0.00020   0.00013   0.00011  -0.00019  -0.00019
13 O 4f+2       -0.00002   0.00021   0.00020  -0.00006  -0.00029
13 O 4f+3       -0.00003   0.00014   0.00009   0.00018  -0.00029
14 O 1s         -0.00011  -0.00020  -0.00020   0.00030   0.00019
14 O 2s          0.00160   0.00118   0.00097   0.00184  -0.00088
14 O 3s          0.00057   0.00043   0.00039   0.00045  -0.00032
14 O 4s          0.00475   0.00436   0.00247  -0.00233  -0.00347
14 O 2px         0.00402  -0.00029  -0.00105   0.00604   0.00073
14 O 2py         0.00125  -0.00116  -0.00171   0.00095   0.00095
14 O 2pz        -0.00316  -0.00145  -0.00248   0.00091   0.00078
14 O 3px         0.00473  -0.00011  -0.00125   0.00725   0.00052
14 O 3py         0.00140  -0.00120  -0.00170   0.00088   0.00111
14 O 3pz        -0.00406  -0.00165  -0.00261   0.00101   0.00085
14 O 4px         0.00654  -0.00093  -0.00202   0.00725   0.00195
14 O 4py         0.00143  -0.00296  -0.00380   0.00233   0.00160
14 O 4pz        -0.00583  -0.00269  -0.00565   0.00044   0.00133
14 O 3dxy        0.00009   0.00002   0.00004   0.00002   0.00001
14 O 3dyz       -0.00008  -0.00004  -0.00004  -0.00001   0.00002
14 O 3dz^2      -0.00008   0.00001   0.00001  -0.00008  -0.00001
14 O 3dxz        0.00003  -0.00001  -0.00000  -0.00003   0.00006
14 O 3dx2-y2     0.00003   0.00001   0.00004  -0.00008   0.00002
14 O 4dxy        0.00027  -0.00019  -0.00003  -0.00011   0.00032
14 O 4dyz       -0.00006  -0.00005  -0.00001  -0.00007   0.00012
14 O 4dz^2      -0.00014  -0.00020  -0.00017  -0.00004   0.00018
14 O 4dxz       -0.00010  -0.00013  -0.00020  -0.00041   0.00027
14 O 4dx2-y2    -0.00023  -0.00008  -0.00020  -0.00033   0.00028
14 O 4f-3        0.00002   0.00003   0.00005   0.00005  -0.00006
14 O 4f-2       -0.00004   0.00000  -0.00001   0.00010  -0.00007
14 O 4f-1        0.00001   0.00002   0.00002   0.00006  -0.00004
14 O 4f+0        0.00001   0.00001   0.00004  -0.00001  -0.00000
14 O 4f+1       -0.00003  -0.00001  -0.00001   0.00002  -0.00001
14 O 4f+2       -0.00002   0.00003   0.00004  -0.00005  -0.00003
14 O 4f+3        0.00002   0.00000  -0.00000  -0.00005   0.00005
15 C 1s         -0.00026   0.00016   0.00000   0.00044  -0.00063
15 C 2s         -0.00602   0.00112  -0.00006   0.00501  -0.00836
15 C 3s         -0.00881  -0.00158  -0.00154   0.00769  -0.00420
15 C 2px        -0.01472  -0.00069  -0.00241  -0.00043  -0.00780
15 C 2py         0.00082  -0.00426  -0.00393  -0.00709   0.01199
15 C 2pz         0.01042   0.00040   0.00132   0.00836   0.00054
15 C 3px        -0.01142   0.00041   0.00072  -0.00284  -0.00363
15 C 3py        -0.00222  -0.00403  -0.00674  -0.00331   0.00505
15 C 3pz         0.00813   0.00013   0.00169   0.00542   0.00019
15 C 3dxy        0.00159   0.00063   0.00089   0.00052   0.00003
15 C 3dyz       -0.00143   0.00121   0.00151  -0.00191  -0.00148
15 C 3dz^2      -0.00006  -0.00043  -0.00065  -0.00001   0.00063
15 C 3dxz        0.00129  -0.00079  -0.00107   0.00075   0.00162
15 C 3dx2-y2    -0.00072  -0.00211  -0.00303   0.00007   0.00262
16 H 1s          0.00138  -0.00458  -0.00633   0.00233   0.00727
16 H 2s          0.00136  -0.00523  -0.00725   0.00319   0.00904
16 H 2px        -0.00048   0.00003  -0.00002   0.00010  -0.00032
16 H 2py        -0.00002  -0.00015  -0.00003  -0.00014   0.00037
16 H 2pz         0.00014   0.00005   0.00004   0.00021  -0.00006
17 Fe 1s         0.00005  -0.00016  -0.00000   0.00064   0.00000
17 Fe 2s         0.00021  -0.00047  -0.00000   0.00189  -0.00000
17 Fe 3s        -0.03035  -0.00158  -0.00000   0.00887  -0.00000
17 Fe 4s        -0.02045  -0.04386  -0.00000   0.02888   0.00000
17 Fe 5s        -0.00999  -0.00508   0.00000  -0.00500   0.00000
17 Fe 6s         0.00437   0.00015  -0.00000   0.00427   0.00000
17 Fe 7s        -0.03717  -0.00341   0.00000  -0.02506  -0.00000
17 Fe 2px       -0.00096  -0.00022   0.00002  -0.00004   0.00000
17 Fe 2py        0.00022  -0.00059  -0.00002   0.00029  -0.00000
17 Fe 2pz        0.00017  -0.00005   0.00012   0.00005   0.00002
17 Fe 3px       -0.02682  -0.00604   0.00033  -0.00099   0.00003
17 Fe 3py       -0.00127  -0.01632  -0.00033   0.00319  -0.00003
17 Fe 3pz        0.00362  -0.00146   0.00234   0.00059   0.00019
17 Fe 4px       -0.09651  -0.03033   0.00027  -0.00083   0.00050
17 Fe 4py        0.06843  -0.01489  -0.00028   0.07144  -0.00050
17 Fe 4pz        0.02339   0.00219   0.00191   0.01025   0.00356
17 Fe 5px        0.06135   0.03587  -0.00059   0.00076  -0.00015
17 Fe 5py       -0.06272   0.05932   0.00059  -0.05895   0.00015
17 Fe 5pz       -0.01759   0.00333  -0.00414  -0.00847  -0.00109
17 Fe 6px       -0.00013   0.00023   0.00003  -0.00059   0.00004
17 Fe 6py        0.00248   0.00304  -0.00003   0.00191  -0.00004
17 Fe 6pz        0.00037   0.00040   0.00022   0.00035   0.00031
17 Fe 7px       -0.03370  -0.00215  -0.00087   0.00025  -0.00098
17 Fe 7py       -0.00834  -0.00766   0.00087  -0.01089   0.00098
17 Fe 7pz        0.00360  -0.00078  -0.00611  -0.00158  -0.00689
17 Fe 3dxy      -0.68639  -0.28230  -0.11625   0.35916   0.05099
17 Fe 3dyz       0.07170  -0.11305  -0.58760  -0.16044  -0.20886
17 Fe 3dz^2      0.42748   0.31686  -0.20133   0.47680   0.08831
17 Fe 3dxz       0.08766  -0.03429   0.19878   0.18990  -0.55379
17 Fe 3dx2-y2   -0.56183   0.51948  -0.05513  -0.10391  -0.10816
17 Fe 4dxy      -0.01025   0.00946   0.00619  -0.01174  -0.00371
17 Fe 4dyz       0.00068   0.00500   0.02542   0.00612   0.00225
17 Fe 4dz^2      0.00776  -0.01436   0.01073  -0.01827  -0.00643
17 Fe 4dxz       0.00162   0.00045  -0.01649  -0.00671   0.02739
17 Fe 4dx2-y2   -0.00808  -0.01921   0.00127   0.00210   0.00420
17 Fe 5dxy      -0.00660   0.00113   0.00114  -0.00181  -0.00068
17 Fe 5dyz       0.00053   0.00094   0.00466   0.00108  -0.00001
17 Fe 5dz^2      0.00466  -0.00264   0.00197  -0.00321  -0.00117
17 Fe 5dxz       0.00096  -0.00008  -0.00305  -0.00109   0.00457
17 Fe 5dx2-y2   -0.00525  -0.00302   0.00023   0.00004   0.00065
17 Fe 6dxy      -0.05441  -0.01183  -0.00089   0.01213  -0.00020
17 Fe 6dyz       0.00718  -0.00398  -0.01313  -0.00303  -0.01071
17 Fe 6dz^2      0.02580   0.01315  -0.00154   0.01033  -0.00034
17 Fe 6dxz       0.00431  -0.00075  -0.00712   0.00585  -0.00938
17 Fe 6dx2-y2   -0.04049   0.01668  -0.00287  -0.00995  -0.00285
17 Fe 4f-3       0.00024  -0.00005   0.00001   0.00009   0.00004
17 Fe 4f-2       0.00002  -0.00000  -0.00009  -0.00006   0.00017
17 Fe 4f-1      -0.00010  -0.00021   0.00007  -0.00017  -0.00003
17 Fe 4f+0       0.00001  -0.00005  -0.00005  -0.00006  -0.00002
17 Fe 4f+1      -0.00012  -0.00008  -0.00001  -0.00003   0.00005
17 Fe 4f+2       0.00005  -0.00005  -0.00014  -0.00004  -0.00004
17 Fe 4f+3      -0.00035  -0.00012  -0.00004   0.00004   0.00002
17 Fe 5f-3       0.00068  -0.00243   0.00027   0.00047   0.00024
17 Fe 5f-2       0.00037   0.00037   0.00057  -0.00022   0.00026
17 Fe 5f-1      -0.00024  -0.00192   0.00047  -0.00059   0.00021
17 Fe 5f+0       0.00003  -0.00045  -0.00099  -0.00023  -0.00006
17 Fe 5f+1      -0.00027  -0.00067  -0.00001   0.00000   0.00029
17 Fe 5f+2       0.00049  -0.00080  -0.00097  -0.00003  -0.00107
17 Fe 5f+3      -0.00266  -0.00137  -0.00008  -0.00012  -0.00015
17 Fe 5g-4       0.00136  -0.00010   0.00014   0.00009   0.00013
17 Fe 5g-3      -0.00028   0.00010   0.00040   0.00000   0.00121
17 Fe 5g-2      -0.00079  -0.00067  -0.00020   0.00011  -0.00019
17 Fe 5g-1       0.00013  -0.00016  -0.00045  -0.00014  -0.00070
17 Fe 5g+0       0.00072   0.00049  -0.00024   0.00051   0.00041
17 Fe 5g+1       0.00032  -0.00009  -0.00001   0.00048  -0.00154
17 Fe 5g+2      -0.00072   0.00038   0.00006  -0.00052  -0.00052
17 Fe 5g+3      -0.00014   0.00029  -0.00030  -0.00028   0.00048
17 Fe 5g+4      -0.00003  -0.00178   0.00003   0.00088   0.00035
18 O 1s         -0.00007  -0.00037   0.00011  -0.00021   0.00006
18 O 2s         -0.00873  -0.00730   0.02225   0.00100  -0.01652
18 O 3s         -0.00263  -0.00191   0.00649   0.00035  -0.00480
18 O 4s         -0.02109  -0.01042   0.03599   0.00131  -0.02595
18 O 2px         0.00674   0.00289  -0.00841   0.00858   0.00280
18 O 2py         0.00739  -0.00773  -0.00193  -0.00420  -0.01323
18 O 2pz         0.00610  -0.01366   0.01409   0.00479  -0.01470
18 O 3px         0.00782   0.00391  -0.01052   0.01056   0.00403
18 O 3py         0.00850  -0.00997  -0.00138  -0.00522  -0.01731
18 O 3pz         0.00680  -0.01820   0.01892   0.00637  -0.02000
18 O 4px         0.00814   0.00377  -0.00986   0.01012   0.00446
18 O 4py         0.00980  -0.01146  -0.00040  -0.00738  -0.01806
18 O 4pz         0.01256  -0.01684   0.01990   0.00781  -0.02053
18 O 3dxy        0.00036  -0.00039  -0.00031  -0.00027  -0.00028
18 O 3dyz       -0.00053   0.00028   0.00025   0.00036   0.00033
18 O 3dz^2      -0.00040   0.00032  -0.00028  -0.00061   0.00041
18 O 3dxz       -0.00082  -0.00035   0.00100  -0.00008  -0.00050
18 O 3dx2-y2     0.00065   0.00017  -0.00051   0.00045   0.00008
18 O 4dxy        0.00026  -0.00128  -0.00050  -0.00091  -0.00167
18 O 4dyz       -0.00204   0.00096   0.00091   0.00142   0.00080
18 O 4dz^2      -0.00120   0.00121  -0.00106  -0.00269   0.00162
18 O 4dxz       -0.00203  -0.00098   0.00270   0.00000  -0.00207
18 O 4dx2-y2     0.00154   0.00074  -0.00138   0.00156   0.00043
18 O 4f-3        0.00032   0.00004  -0.00013   0.00020  -0.00015
18 O 4f-2       -0.00020  -0.00023   0.00031  -0.00008  -0.00025
18 O 4f-1       -0.00044   0.00033  -0.00024  -0.00012   0.00046
18 O 4f+0        0.00003   0.00015  -0.00028  -0.00036   0.00011
18 O 4f+1       -0.00053  -0.00002   0.00023  -0.00017  -0.00001
18 O 4f+2        0.00036  -0.00015  -0.00002  -0.00003  -0.00026
18 O 4f+3       -0.00004   0.00017  -0.00002   0.00018   0.00033
19 Fe 1s         0.00009   0.00020   0.00000  -0.00086  -0.00000
19 Fe 2s         0.00026   0.00059   0.00000  -0.00253  -0.00000
19 Fe 3s         0.00162   0.00159   0.00000  -0.01293  -0.00000
19 Fe 4s         0.01776   0.01711   0.00001  -0.04466  -0.00000
19 Fe 5s         0.00223   0.00327   0.00000   0.00003  -0.00000
19 Fe 6s         0.00107   0.00152   0.00000  -0.00151   0.00000
19 Fe 7s         0.03514  -0.00321  -0.00000   0.01177   0.00000
19 Fe 2px        0.00003   0.00014  -0.00002   0.00141   0.00001
19 Fe 2py        0.00008   0.00002   0.00002   0.00028  -0.00001
19 Fe 2pz        0.00001  -0.00002  -0.00014  -0.00016   0.00007
19 Fe 3px       -0.00011   0.00534  -0.00016   0.03504   0.00052
19 Fe 3py       -0.00000  -0.00080   0.00016   0.00680  -0.00052
19 Fe 3pz        0.00001  -0.00087  -0.00111  -0.00401   0.00368
19 Fe 4px       -0.03665   0.00417  -0.00108   0.12413   0.00030
19 Fe 4py        0.02634  -0.01853   0.00105   0.03761  -0.00029
19 Fe 4pz        0.00893  -0.00322  -0.00747  -0.01227   0.00203
19 Fe 5px        0.02939  -0.01392   0.00080  -0.15605  -0.00180
19 Fe 5py       -0.01277   0.00752  -0.00077  -0.04084   0.00179
19 Fe 5pz       -0.00598   0.00304   0.00547   0.01634  -0.01266
19 Fe 6px       -0.00170  -0.00164  -0.00016  -0.00610  -0.00021
19 Fe 6py       -0.00056   0.00153   0.00016  -0.00106   0.00021
19 Fe 6pz        0.00016   0.00045  -0.00110   0.00072  -0.00145
19 Fe 7px       -0.01143   0.00303   0.00063   0.00223   0.00076
19 Fe 7py       -0.01559  -0.00523  -0.00063  -0.00100  -0.00076
19 Fe 7pz       -0.00059  -0.00117   0.00447  -0.00046   0.00539
19 Fe 3dxy      -0.00414   0.57845   0.11835  -0.33368  -0.07221
19 Fe 3dyz      -0.00342  -0.04666   0.14731  -0.01755  -0.70059
19 Fe 3dz^2     -0.00743   0.04953   0.20484   0.47555  -0.12501
19 Fe 3dxz      -0.00845   0.14964  -0.65331   0.12709  -0.21191
19 Fe 3dx2-y2    0.04184  -0.36303  -0.07170  -0.38628  -0.12941
19 Fe 4dxy      -0.00272  -0.06030  -0.01516   0.03999   0.01128
19 Fe 4dyz      -0.00022   0.00501  -0.02683   0.00161   0.09414
19 Fe 4dz^2      0.00243  -0.00688  -0.02624  -0.05681   0.01953
19 Fe 4dxz       0.00021  -0.01634   0.07571  -0.01563   0.01779
19 Fe 4dx2-y2    0.00004   0.03995   0.00692   0.04943   0.01587
19 Fe 5dxy      -0.00078  -0.01213  -0.00294   0.00770   0.00227
19 Fe 5dyz      -0.00006   0.00099  -0.00533   0.00035   0.01870
19 Fe 5dz^2      0.00088  -0.00119  -0.00508  -0.01071   0.00393
19 Fe 5dxz       0.00016  -0.00320   0.01453  -0.00285   0.00333
19 Fe 5dx2-y2   -0.00035   0.00781   0.00130   0.00883   0.00312
19 Fe 6dxy      -0.00203   0.00786   0.00046  -0.00497   0.00226
19 Fe 6dyz      -0.00065  -0.00088  -0.00219  -0.00116   0.00890
19 Fe 6dz^2      0.00216   0.00149   0.00080   0.01061   0.00391
19 Fe 6dxz      -0.00014   0.00220  -0.00530   0.00280  -0.00638
19 Fe 6dx2-y2    0.00278  -0.00467  -0.00106  -0.00578   0.00036
19 Fe 4f-3      -0.00004   0.00020   0.00006  -0.00030  -0.00008
19 Fe 4f-2      -0.00000  -0.00002  -0.00000   0.00002  -0.00045
19 Fe 4f-1      -0.00001  -0.00011   0.00002   0.00012   0.00005
19 Fe 4f+0      -0.00003  -0.00006   0.00017  -0.00011   0.00015
19 Fe 4f+1       0.00006   0.00006   0.00014   0.00041  -0.00006
19 Fe 4f+2       0.00001   0.00009  -0.00034   0.00011   0.00003
19 Fe 4f+3      -0.00005  -0.00035  -0.00006  -0.00022  -0.00007
19 Fe 5f-3      -0.00022   0.00202   0.00025  -0.00396  -0.00016
19 Fe 5f-2       0.00016  -0.00014  -0.00186   0.00066  -0.00189
19 Fe 5f-1      -0.00067  -0.00071   0.00032   0.00164   0.00020
19 Fe 5f+0      -0.00022  -0.00059   0.00228  -0.00102   0.00131
19 Fe 5f+1      -0.00005   0.00087   0.00114   0.00447   0.00025
19 Fe 5f+2       0.00007   0.00103  -0.00312   0.00137  -0.00096
19 Fe 5f+3      -0.00154  -0.00344  -0.00088  -0.00365  -0.00050
19 Fe 5g-4       0.00010  -0.00011   0.00002  -0.00002  -0.00013
19 Fe 5g-3      -0.00002   0.00002  -0.00008  -0.00001  -0.00025
19 Fe 5g-2       0.00001  -0.00010   0.00006   0.00018   0.00000
19 Fe 5g-1       0.00002  -0.00001  -0.00003  -0.00015   0.00017
19 Fe 5g+0      -0.00001   0.00005  -0.00001   0.00011   0.00006
19 Fe 5g+1       0.00002  -0.00002   0.00001   0.00011   0.00005
19 Fe 5g+2      -0.00006   0.00005   0.00002   0.00005  -0.00012
19 Fe 5g+3      -0.00001  -0.00000  -0.00018   0.00001   0.00040
19 Fe 5g+4       0.00008  -0.00016  -0.00005   0.00026   0.00003
20 O 1s         -0.00008  -0.00014   0.00014  -0.00005  -0.00029
20 O 2s          0.00081   0.00808  -0.02284  -0.01067   0.02040
20 O 3s          0.00022   0.00238  -0.00652  -0.00287   0.00577
20 O 4s          0.00091   0.01444  -0.03574  -0.01670   0.03309
20 O 2px        -0.00333   0.00960  -0.00094   0.01101  -0.01885
20 O 2py         0.00070  -0.00017  -0.01158  -0.00681   0.00874
20 O 2pz         0.00475   0.00155  -0.01984  -0.01643   0.02809
20 O 3px        -0.00432   0.01182  -0.00002   0.01472  -0.02445
20 O 3py         0.00128  -0.00014  -0.01428  -0.00906   0.01160
20 O 3pz         0.00621   0.00251  -0.02612  -0.02159   0.03713
20 O 4px        -0.00380   0.01094   0.00094   0.01414  -0.02754
20 O 4py         0.00259  -0.00316  -0.01303  -0.00494   0.00473
20 O 4pz         0.00924   0.00049  -0.02628  -0.02019   0.03212
20 O 3dxy        0.00016  -0.00043   0.00036  -0.00022   0.00008
20 O 3dyz        0.00001  -0.00030   0.00087   0.00035  -0.00062
20 O 3dz^2      -0.00024  -0.00004   0.00012  -0.00001  -0.00031
20 O 3dxz        0.00006  -0.00042   0.00030  -0.00022   0.00008
20 O 3dx2-y2    -0.00007   0.00005  -0.00049  -0.00040   0.00025
20 O 4dxy       -0.00012  -0.00076   0.00055  -0.00107   0.00134
20 O 4dyz       -0.00032  -0.00058   0.00182   0.00096  -0.00187
20 O 4dz^2      -0.00007  -0.00014   0.00031   0.00001  -0.00106
20 O 4dxz       -0.00005  -0.00113   0.00112  -0.00035  -0.00031
20 O 4dx2-y2     0.00015  -0.00035  -0.00103  -0.00135   0.00090
20 O 4f-3       -0.00000   0.00017   0.00003   0.00026  -0.00034
20 O 4f-2       -0.00001   0.00009  -0.00034  -0.00020   0.00034
20 O 4f-1        0.00018  -0.00012   0.00015   0.00013   0.00001
20 O 4f+0        0.00001  -0.00017   0.00030   0.00006  -0.00019
20 O 4f+1        0.00011  -0.00013  -0.00018  -0.00019   0.00046
20 O 4f+2       -0.00013   0.00017   0.00006   0.00012  -0.00029
20 O 4f+3        0.00005  -0.00008   0.00019   0.00009   0.00005
21 O 1s         -0.00008  -0.00014  -0.00014  -0.00005   0.00029
21 O 2s          0.00081   0.00808   0.02284  -0.01066  -0.02040
21 O 3s          0.00021   0.00238   0.00652  -0.00287  -0.00577
21 O 4s          0.00091   0.01444   0.03574  -0.01668  -0.03309
21 O 2px        -0.00446   0.00880  -0.00406   0.01479   0.02544
21 O 2py         0.00184   0.00063   0.01658  -0.01060  -0.01534
21 O 2pz        -0.00329  -0.00409  -0.01541   0.01029   0.01840
21 O 3px        -0.00580   0.01068  -0.00656   0.01968   0.03319
21 O 3py         0.00276   0.00101   0.02085  -0.01402  -0.02034
21 O 3pz        -0.00420  -0.00557  -0.02022   0.01343   0.02443
21 O 4px        -0.00607   0.01026  -0.00757   0.01890   0.03505
21 O 4py         0.00486  -0.00248   0.01965  -0.00971  -0.01224
21 O 4pz        -0.00679  -0.00429  -0.02044   0.01342   0.02084
21 O 3dxy        0.00019  -0.00042  -0.00017  -0.00035  -0.00029
21 O 3dyz        0.00007   0.00040   0.00075  -0.00009  -0.00054
21 O 3dz^2      -0.00018  -0.00003   0.00020  -0.00023  -0.00006
21 O 3dxz       -0.00009   0.00023   0.00006   0.00019   0.00018
21 O 3dx2-y2    -0.00009   0.00024   0.00077  -0.00040  -0.00038
[...]
Leading 10 CSFs of 5 local primitive basis functions for fragment 1 in rootspace 17:
State 0/5                State 1/5                State 2/5                
0000uuuuuu :  9.57e-01   000u0uuuuu :  9.91e-01   00u00uuuuu :  9.59e-01   
00u00uuuuu :  2.49e-01   0u0u0uuu0u : -6.41e-02   0000uuuuuu : -2.50e-01   
000uuu0uuu : -6.19e-02   000uu0uuuu :  6.41e-02   00u0u0uuuu :  6.08e-02   
0u00uuuu0u : -6.18e-02   00uu0uu0uu : -6.18e-02   00uu0u0uuu :  6.01e-02   
00u0uuu0uu : -5.97e-02   u00u0uuuu0 : -5.63e-02   u0u00uuuu0 : -5.96e-02   
0u000uuuuu : -5.94e-02   u0uu0uu0u0 : -2.39e-02   0uu00uuu0u : -5.84e-02   
u000uuuuu0 : -5.41e-02   0u0uu0uu0u :  2.28e-02   0uuu0u0u0u :  2.19e-02   
u0u0uuu0u0 : -2.30e-02   00uuu0u0uu :  2.07e-02   0uu0u0uu0u :  2.18e-02   
0u0uuu0u0u : -2.18e-02   u00uu0uuu0 :  1.95e-02   00uuu00uuu : -2.12e-02   
00uuuu00uu : -1.96e-02   0uuu0uu00u : -1.94e-02   u0uu0u0uu0 :  1.91e-02   
State 3/5                State 4/5                
0u000uuuuu :  9.89e-01   u0000uuuuu :  9.90e-01   
0u00u0uuuu :  6.59e-02   u0u00uu0uu :  6.86e-02   
0u0u0u0uuu :  6.54e-02   u00u0u0uuu :  6.37e-02   
0uu00uu0uu :  6.05e-02   u000u0uuuu :  6.36e-02   
0000uuuuuu :  5.77e-02   uu000uuu0u :  6.08e-02   
uu000uuuu0 : -5.48e-02   uu00u0uu0u : -2.27e-02   
uuu00uu0u0 :  2.39e-02   uu0u0u0u0u : -2.25e-02   
0u0uu00uuu : -2.13e-02   u00uu00uuu : -2.14e-02   
0uu0u0u0uu : -2.07e-02   u0u0u0u0uu : -2.04e-02   
0uuu0u00uu : -2.06e-02   u0uu0u00uu : -2.03e-02   
Rootspace 23 with averaged weight 1.940e-07
 Frag    Nelec  2S+1   Ir     <n>  Max(weight)   Entropy
    0    3a+2b     6    A   0.005       0.9979  0.015558
    1    3a+3b     7    A   2.735       0.9054  0.016280
Wave function(s) in rootspace 23 in local primitive basis:
 Fac:  1.744e-04  4.934e-04  3.604e-04  4.701e-04  5.875e-04
  03:  9.470e-01  9.500e-01 -9.519e-01  9.533e-01  9.541e-01
  00:  2.997e-01  2.928e-01 -2.887e-01  2.854e-01  2.837e-01
  02: -1.065e-01 -9.820e-02  9.181e-02 -8.735e-02 -8.467e-02
  10: -2.586e-02 -2.612e-02  2.632e-02 -2.647e-02 -2.655e-02
  43: -2.085e-02 -2.053e-02  2.030e-02 -2.013e-02 -2.003e-02
  40:  1.838e-02  1.791e-02 -1.756e-02  1.731e-02  1.716e-02
  42: -1.608e-02 -1.590e-02  1.577e-02 -1.568e-02 -1.562e-02
  21: -1.189e-02 -1.190e-02  1.191e-02 -1.191e-02 -1.191e-02
  13:  1.023e-02  1.064e-02 -1.095e-02  1.117e-02  1.130e-02
  34:  9.733e-03  9.701e-03 -9.677e-03  9.659e-03  9.648e-03
  31:  8.280e-03  8.269e-03 -8.259e-03  8.251e-03  8.246e-03
  12: -2.289e-03 -2.331e-03  2.366e-03 -2.391e-03 -2.406e-03
  24:  1.318e-03  1.271e-03 -1.237e-03  1.213e-03  1.199e-03
  04: -1.097e-04 -1.090e-04  1.085e-04 -1.081e-04 -1.079e-04
Remaining 11 ENVs in rootspace 23 have combined average weight = 5.306857e-09
Leading 10 CSFs of 5 local primitive basis functions for fragment 0 in rootspace 23:
State 0/5                State 1/5                State 2/5                
00000uuuuu :  9.82e-01   0000u0uuuu : -9.09e-01   0000uuuu0u : -8.48e-01   
0000uuuuu0 : -1.14e-01   0000uuu0uu : -3.73e-01   0000uu0uuu : -4.88e-01   
000u00uuuu : -7.48e-02   00u0u00uuu :  9.11e-02   000uu0uu0u : -8.82e-02   
00u00u0uuu : -7.11e-02   0u00u0u0uu :  8.78e-02   00u0uu0u0u : -8.78e-02   
0u000uu0uu : -6.75e-02   u000u0uu0u :  7.35e-02   0u00uuu00u : -8.72e-02   
u0000uuu0u : -5.76e-02   000u00uuuu : -4.78e-02   0u000uuu0u : -6.36e-02   
uu000uu00u : -2.25e-02   00u0uu00uu : -4.04e-02   0u000u0uuu : -6.35e-02   
0uu00u00uu : -2.17e-02   000uu0u0uu : -3.86e-02   00u000uuuu :  5.20e-02   
000uu0uuu0 :  2.10e-02   00u00uuu0u :  3.76e-02   000uu00uuu : -5.06e-02   
0u0u00u0uu : -1.97e-02   00u00u0uuu :  3.63e-02   0u00uu00uu :  4.63e-02   
State 3/5                State 4/5                
0000uu0uuu : -8.49e-01   0000uuu0uu :  9.02e-01   
0000uuuu0u :  4.89e-01   0000u0uuuu : -3.79e-01   
0u00uu00uu :  8.62e-02   000uu0u0uu :  9.11e-02   
000uu00uuu : -8.62e-02   00u0uu00uu :  9.01e-02   
000u0u0uuu : -7.61e-02   u000uuu00u : -7.96e-02   
u000uu0u0u :  7.02e-02   0000uuuuu0 : -6.91e-02   
0u000u0uuu : -6.36e-02   000u00uuuu :  6.05e-02   
0u00uuu00u :  5.38e-02   0u000uu0uu :  4.36e-02   
000uu0uu0u :  4.98e-02   0u00u0u0uu :  3.73e-02   
00u0uu0u0u :  4.31e-02   00u0u00uuu :  3.45e-02   
Leading 10 CSFs of 5 local primitive basis functions for fragment 1 in rootspace 23:
State 0/5                State 1/5                State 2/5                
0000uuuuuu :  9.57e-01   000u0uuuuu :  9.91e-01   00u00uuuuu :  9.59e-01   
00u00uuuuu :  2.49e-01   0u0u0uuu0u : -6.41e-02   0000uuuuuu : -2.50e-01   
000uuu0uuu : -6.19e-02   000uu0uuuu :  6.41e-02   00u0u0uuuu :  6.08e-02   
0u00uuuu0u : -6.18e-02   00uu0uu0uu : -6.18e-02   00uu0u0uuu :  6.01e-02   
00u0uuu0uu : -5.97e-02   u00u0uuuu0 : -5.63e-02   u0u00uuuu0 : -5.96e-02   
0u000uuuuu : -5.95e-02   u0uu0uu0u0 : -2.39e-02   0uu00uuu0u : -5.84e-02   
u000uuuuu0 : -5.41e-02   0u0uu0uu0u :  2.28e-02   0uuu0u0u0u :  2.19e-02   
u0u0uuu0u0 : -2.30e-02   00uuu0u0uu :  2.07e-02   0uu0u0uu0u :  2.18e-02   
0u0uuu0u0u : -2.18e-02   u00uu0uuu0 :  1.95e-02   00uuu00uuu : -2.12e-02   
00uuuu00uu : -1.96e-02   0uuu0uu00u : -1.94e-02   u0uu0u0uu0 :  1.91e-02   
State 3/5                State 4/5                
0u000uuuuu :  9.89e-01   u0000uuuuu :  9.90e-01   
0u00u0uuuu :  6.59e-02   u0u00uu0uu :  6.86e-02   
0u0u0u0uuu :  6.54e-02   u00u0u0uuu :  6.38e-02   
0uu00uu0uu :  6.05e-02   u000u0uuuu :  6.36e-02   
0000uuuuuu :  5.77e-02   uu000uuu0u :  6.08e-02   
uu000uuuu0 : -5.48e-02   uu00u0uu0u : -2.27e-02   
uuu00uu0u0 :  2.39e-02   uu0u0u0u0u : -2.25e-02   
0u0uu00uuu : -2.13e-02   u00uu00uuu : -2.14e-02   
0uu0u0u0uu : -2.07e-02   u0u0u0u0uu : -2.04e-02   
0uuu0u00uu : -2.06e-02   u0uu0u00uu : -2.03e-02   
Rootspace 21 with averaged weight 1.336e-08
 Frag    Nelec  2S+1   Ir     <n>  Max(weight)   Entropy
    0    3a+2b     4    A   1.522       0.6580  0.818297
    1    3a+3b     7    A   1.048       0.5045  0.818000
Wave function(s) in rootspace 21 in local primitive basis:
 Fac:  2.256e-04  7.967e-05  7.798e-05  5.913e-05  1.005e-06
  10:  6.937e-01 -6.940e-01 -6.941e-01 -6.942e-01 -6.944e-01
  33: -4.258e-01  4.256e-01  4.256e-01  4.254e-01  4.188e-01
  12: -4.251e-01  4.216e-01  4.189e-01  4.170e-01  4.156e-01
  21:  2.599e-01 -2.582e-01 -2.568e-01 -2.558e-01 -2.566e-01
  01:  1.862e-01 -1.929e-01 -1.980e-01 -2.015e-01 -2.049e-01
  30:  1.438e-01 -1.468e-01 -1.487e-01 -1.503e-01 -1.635e-01
  41: -1.545e-01  1.508e-01  1.479e-01  1.459e-01  1.456e-01
  32: -8.774e-02  9.635e-02  1.029e-01  1.074e-01  1.096e-01
  24:  3.763e-02 -3.697e-02 -3.644e-02 -3.608e-02 -3.643e-02
  44:  1.156e-02 -1.558e-02 -1.867e-02 -2.077e-02 -2.140e-02
  13: -2.145e-02  1.514e-02  1.034e-02  6.927e-03  2.514e-03
  04: -1.483e-02  1.250e-02  1.075e-02  9.523e-03  8.001e-03
  22: -7.181e-04  7.130e-04  7.089e-04  7.060e-04  7.025e-04
  43:  5.618e-04 -5.605e-04 -5.596e-04 -5.587e-04 -5.513e-04
  42:  5.380e-04 -5.396e-04 -5.407e-04 -5.414e-04 -5.444e-04
  02: -5.007e-04  5.101e-04  5.172e-04  5.222e-04  5.255e-04
  23: -2.826e-04  2.799e-04  2.779e-04  2.765e-04  2.763e-04
  03: -2.229e-04  2.265e-04  2.293e-04  2.312e-04  2.341e-04
  00: -1.707e-04  1.745e-04  1.774e-04  1.793e-04  1.805e-04
  20: -1.563e-04  1.543e-04  1.529e-04  1.519e-04  1.532e-04
  11: -1.209e-04  1.210e-04  1.211e-04  1.211e-04  1.231e-04
  31: -1.199e-04  1.175e-04  1.156e-04  1.144e-04  1.132e-04
Remaining 3 ENVs in rootspace 21 have combined average weight = 6.253879e-09
Leading 10 CSFs of 5 local primitive basis functions for fragment 0 in rootspace 21:
State 0/5                State 1/5                State 2/5                
00000uu20u :  6.84e-01   000000uuu2 :  6.89e-01   0000002uuu :  5.21e-01   
000002uu0u : -4.78e-01   00000u2u0u :  4.23e-01   00000uuu02 :  5.16e-01   
00000uuu02 :  3.89e-01   00000uu0u2 :  3.27e-01   00000u20uu :  4.49e-01   
00000u0uu2 :  2.35e-01   00000uuduu : -2.35e-01   00000uu20u : -2.51e-01   
00000u02uu :  1.19e-01   00000duuuu :  2.22e-01   00000u0uu2 :  2.36e-01   
00000uu02u : -1.13e-01   000000u2uu : -2.20e-01   000002uu0u :  1.77e-01   
0000020uuu : -1.00e-01   00000uu2u0 :  1.45e-01   000000uu2u : -1.76e-01   
00000uuu20 : -9.45e-02   00000uuudu :  9.54e-02   0000020uuu : -1.46e-01   
000000uu2u :  8.62e-02   00000uduuu : -8.37e-02   00000uuu20 : -1.33e-01   
0000uuu200 :  7.95e-02   000002u0uu :  7.38e-02   00000uu02u : -7.35e-02   
State 3/5                State 4/5                
00000uuduu :  5.11e-01   00000u20uu :  5.40e-01   
000000uuu2 :  5.05e-01   00000uuu02 : -3.84e-01   
00000u2u0u : -4.84e-01   00000uu20u :  3.69e-01   
000002uuu0 :  2.90e-01   00000u02uu : -3.48e-01   
00000u0u2u : -2.45e-01   00000uu02u : -3.24e-01   
00000uduuu : -1.66e-01   00000u0uu2 : -2.60e-01   
00000uuudu : -1.52e-01   00000u2uu0 :  1.94e-01   
000000u2uu :  8.55e-02   0000002uuu :  1.73e-01   
00000uu2u0 : -6.55e-02   00000uuu20 :  1.49e-01   
000002u0uu : -6.28e-02   000000uu2u : -7.82e-02   
Leading 10 CSFs of 5 local primitive basis functions for fragment 1 in rootspace 21:
State 0/5                State 1/5                State 2/5                
0000uuuuuu :  9.58e-01   000u0uuuuu :  9.91e-01   00u00uuuuu :  9.60e-01   
00u00uuuuu :  2.46e-01   0u0u0uuu0u : -6.41e-02   0000uuuuuu : -2.47e-01   
000uuu0uuu : -6.19e-02   000uu0uuuu :  6.41e-02   00u0u0uuuu :  6.08e-02   
0u00uuuu0u : -6.18e-02   00uu0uu0uu : -6.19e-02   00uu0u0uuu :  6.02e-02   
00u0uuu0uu : -5.98e-02   u00u0uuuu0 : -5.63e-02   u0u00uuuu0 : -5.97e-02   
0u000uuuuu : -5.91e-02   u0uu0uu0u0 : -2.39e-02   0uu00uuu0u : -5.84e-02   
u000uuuuu0 : -5.42e-02   0u0uu0uu0u :  2.28e-02   0uuu0u0u0u :  2.20e-02   
u0u0uuu0u0 : -2.30e-02   00uuu0u0uu :  2.07e-02   0uu0u0uu0u :  2.18e-02   
0u0uuu0u0u : -2.18e-02   u00uu0uuu0 :  1.95e-02   00uuu00uuu : -2.12e-02   
00uuuu00uu : -1.96e-02   0uuu0uu00u : -1.94e-02   u0uu0u0uu0 :  1.91e-02   
State 3/5                State 4/5                
0u000uuuuu : -9.89e-01   u0000uuuuu :  9.90e-01   
0u00u0uuuu : -6.59e-02   u0u00uu0uu :  6.86e-02   
0u0u0u0uuu : -6.54e-02   u00u0u0uuu :  6.38e-02   
0uu00uu0uu : -6.05e-02   u000u0uuuu :  6.36e-02   
0000uuuuuu : -5.75e-02   uu000uuu0u :  6.08e-02   
uu000uuuu0 :  5.48e-02   uu00u0uu0u : -2.27e-02   
uuu00uu0u0 : -2.39e-02   uu0u0u0u0u : -2.25e-02   
0u0uu00uuu :  2.13e-02   u00uu00uuu : -2.14e-02   
0uu0u0u0uu :  2.07e-02   u0u0u0u0uu : -2.04e-02   
0uuu0u00uu :  2.06e-02   u0uu0u00uu : -2.03e-02   
Rootspace 15 with averaged weight 1.251e-08
 Frag    Nelec  2S+1   Ir     <n>  Max(weight)   Entropy
    0    2a+3b     4    A   1.524       0.6571  0.824650
    1    4a+2b     7    A   1.064       0.5000  0.824808
Wave function(s) in rootspace 15 in local primitive basis:
 Fac:  1.956e-04  1.383e-04  2.276e-05  6.817e-05  2.254e-06
  10: -6.931e-01 -6.933e-01  6.934e-01 -6.934e-01 -6.924e-01
  33:  4.289e-01  4.288e-01 -4.297e-01  4.288e-01  4.389e-01
  12:  4.252e-01  4.218e-01 -4.190e-01  4.171e-01  4.169e-01
  21: -2.581e-01 -2.563e-01  2.546e-01 -2.538e-01 -2.513e-01
  01:  1.886e-01  1.953e-01 -2.003e-01  2.038e-01  2.022e-01
  41:  1.532e-01  1.495e-01 -1.464e-01  1.446e-01  1.429e-01
  30:  1.398e-01  1.428e-01 -1.431e-01  1.461e-01  1.274e-01
  32: -8.588e-02 -9.447e-02  1.012e-01 -1.055e-01 -1.072e-01
  24: -3.767e-02 -3.699e-02  3.636e-02 -3.606e-02 -3.506e-02
  44: -1.210e-02 -1.611e-02  1.933e-02 -2.130e-02 -2.263e-02
  13: -2.255e-02 -1.623e-02  1.168e-02 -8.055e-03 -1.113e-02
  04: -1.449e-02 -1.217e-02  1.051e-02 -9.226e-03 -1.024e-02
  22:  7.123e-04  7.071e-04 -7.029e-04  7.001e-04  6.980e-04
  43:  5.488e-04  5.475e-04 -5.473e-04  5.460e-04  5.526e-04
  42: -5.313e-04 -5.326e-04  5.334e-04 -5.339e-04 -5.351e-04
  02: -5.072e-04 -5.165e-04  5.236e-04 -5.285e-04 -5.278e-04
  23: -2.805e-04 -2.779e-04  2.760e-04 -2.744e-04 -2.755e-04
  03:  2.265e-04  2.301e-04 -2.330e-04  2.347e-04  2.357e-04
  00: -1.742e-04 -1.779e-04  1.810e-04 -1.827e-04 -1.850e-04
  20:  1.566e-04  1.546e-04 -1.533e-04  1.521e-04  1.554e-04
  11:  1.200e-04  1.201e-04 -1.201e-04  1.201e-04  1.203e-04
  31: -1.124e-04 -1.102e-04  1.083e-04 -1.073e-04 -1.048e-04
Remaining 3 ENVs in rootspace 15 have combined average weight = 8.518675e-09
Leading 10 CSFs of 5 local primitive basis functions for fragment 0 in rootspace 15:
State 0/5                State 1/5                State 2/5                
00000uu20u : -6.81e-01   000000uuu2 :  6.91e-01   0000002uuu :  5.20e-01   
000002uu0u :  4.76e-01   00000u2u0u :  4.21e-01   00000uuu02 :  5.13e-01   
00000uuu02 : -3.94e-01   00000uu0u2 :  3.28e-01   00000u20uu :  4.48e-01   
00000u0uu2 : -2.38e-01   00000uuduu : -2.34e-01   00000uu20u : -2.58e-01   
00000u02uu : -1.19e-01   00000duuuu :  2.21e-01   00000u0uu2 :  2.34e-01   
00000uu02u :  1.13e-01   000000u2uu : -2.19e-01   000002uu0u :  1.82e-01   
0000020uuu :  1.02e-01   00000uu2u0 :  1.45e-01   000000uu2u : -1.76e-01   
00000uuu20 :  9.60e-02   00000uuudu :  9.50e-02   0000020uuu : -1.45e-01   
000000uu2u : -8.45e-02   00000uduuu : -8.37e-02   00000uuu20 : -1.32e-01   
0000uuu200 : -7.92e-02   000002u0uu :  7.36e-02   00000uu02u : -7.20e-02   
State 3/5                State 4/5                
00000uuduu : -5.11e-01   00000u20uu :  5.41e-01   
000000uuu2 : -5.04e-01   00000uuu02 : -3.82e-01   
00000u2u0u :  4.86e-01   00000uu20u :  3.70e-01   
000002uuu0 : -2.91e-01   00000u02uu : -3.48e-01   
00000u0u2u :  2.45e-01   00000uu02u : -3.23e-01   
00000uduuu :  1.65e-01   00000u0uu2 : -2.61e-01   
00000uuudu :  1.51e-01   00000u2uu0 :  1.95e-01   
000000u2uu : -8.63e-02   0000002uuu :  1.74e-01   
00000uu2u0 :  6.69e-02   00000uuu20 :  1.49e-01   
000002u0uu :  6.31e-02   000000uu2u : -7.79e-02   
Leading 10 CSFs of 5 local primitive basis functions for fragment 1 in rootspace 15:
State 0/5                State 1/5                State 2/5                
0000uuuuuu :  9.58e-01   000u0uuuuu :  9.91e-01   00u00uuuuu :  9.60e-01   
00u00uuuuu :  2.47e-01   0u0u0uuu0u : -6.41e-02   0000uuuuuu : -2.47e-01   
000uuu0uuu : -6.19e-02   000uu0uuuu :  6.41e-02   00u0u0uuuu :  6.08e-02   
0u00uuuu0u : -6.18e-02   00uu0uu0uu : -6.19e-02   00uu0u0uuu :  6.02e-02   
00u0uuu0uu : -5.98e-02   u00u0uuuu0 : -5.63e-02   u0u00uuuu0 : -5.97e-02   
0u000uuuuu : -5.90e-02   u0uu0uu0u0 : -2.39e-02   0uu00uuu0u : -5.84e-02   
u000uuuuu0 : -5.42e-02   0u0uu0uu0u :  2.28e-02   0uuu0u0u0u :  2.20e-02   
u0u0uuu0u0 : -2.30e-02   00uuu0u0uu :  2.07e-02   0uu0u0uu0u :  2.18e-02   
0u0uuu0u0u : -2.18e-02   u00uu0uuu0 :  1.95e-02   00uuu00uuu : -2.12e-02   
00uuuu00uu : -1.96e-02   0uuu0uu00u : -1.94e-02   u0uu0u0uu0 :  1.91e-02   
State 3/5                State 4/5                
0u000uuuuu :  9.89e-01   u0000uuuuu :  9.90e-01   
0u00u0uuuu :  6.59e-02   u0u00uu0uu :  6.86e-02   
0u0u0u0uuu :  6.54e-02   u00u0u0uuu :  6.38e-02   
0uu00uu0uu :  6.05e-02   u000u0uuuu :  6.36e-02   
0000uuuuuu :  5.73e-02   uu000uuu0u :  6.08e-02   
uu000uuuu0 : -5.48e-02   uu00u0uu0u : -2.27e-02   
uuu00uu0u0 :  2.39e-02   uu0u0u0u0u : -2.25e-02   
0u0uu00uuu : -2.13e-02   u00uu00uuu : -2.14e-02   
0uu0u0u0uu : -2.07e-02   u0u0u0u0uu : -2.04e-02   
0uuu0u00uu : -2.06e-02   u0uu0u00uu : -2.03e-02   
Rootspace 27 with averaged weight 1.080e-08
 Frag    Nelec  2S+1   Ir     <n>  Max(weight)   Entropy
    0    4a+1b     4    A   1.724       0.5554  0.884035
    1    2a+4b     7    A   0.940       0.5583  0.907541
Wave function(s) in rootspace 27 in local primitive basis:
 Fac:  1.132e-04  1.604e-04  1.179e-04  3.923e-05  5.596e-08
  10: -6.916e-01  6.918e-01 -6.919e-01 -6.920e-01 -3.156e-01
  33: -4.353e-01  4.353e-01 -4.352e-01 -4.345e-01  2.312e-01
  30: -1.319e-01  1.348e-01 -1.371e-01 -1.398e-01 -8.388e-01
  12:  4.255e-01 -4.220e-01  4.194e-01  4.174e-01  1.420e-01
  21:  2.541e-01 -2.522e-01  2.507e-01  2.498e-01  1.786e-01
  01: -1.936e-01  2.002e-01 -2.052e-01 -2.088e-01 -2.065e-01
  41: -1.505e-01  1.468e-01 -1.440e-01 -1.421e-01 -8.958e-02
  32:  8.215e-02 -9.076e-02  9.722e-02  1.017e-01  5.261e-02
  13: -2.473e-02  1.840e-02 -1.353e-02 -9.840e-03  1.796e-01
  24:  3.775e-02 -3.701e-02  3.645e-02  3.609e-02  4.553e-02
  04:  1.379e-02 -1.150e-02  9.760e-03  8.462e-03 -5.847e-02
  44:  1.317e-02 -1.718e-02  2.018e-02  2.225e-02 -8.401e-03
  22: -7.003e-04  6.949e-04 -6.907e-04 -6.876e-04 -2.239e-04
  02:  5.202e-04 -5.294e-04  5.364e-04  5.414e-04  3.411e-04
  42:  5.168e-04 -5.175e-04  5.179e-04  5.182e-04  2.638e-04
  43: -5.292e-04  5.282e-04 -5.272e-04 -5.260e-04  1.443e-04
  40:  1.020e-04 -9.775e-05  9.429e-05  9.087e-05 -6.771e-04
  23:  2.765e-04 -2.737e-04  2.716e-04  2.700e-04  5.240e-05
  03: -2.331e-04  2.367e-04 -2.393e-04 -2.412e-04 -1.051e-04
  00:  1.810e-04 -1.847e-04  1.874e-04  1.892e-04  3.596e-05
  20: -1.572e-04  1.551e-04 -1.536e-04 -1.524e-04 -2.760e-05
  11:  1.182e-04 -1.182e-04  1.183e-04  1.183e-04  9.474e-05
  31:  9.999e-05 -9.796e-05  9.645e-05  9.547e-05  8.674e-05
Remaining 2 ENVs in rootspace 27 have combined average weight = 1.994869e-09
Leading 10 CSFs of 5 local primitive basis functions for fragment 0 in rootspace 27:
State 0/5                State 1/5                State 2/5                
00000uu20u :  6.75e-01   000000uuu2 :  6.94e-01   0000002uuu : -5.18e-01   
000002uu0u : -4.72e-01   00000u2u0u :  4.18e-01   00000uuu02 : -5.06e-01   
00000uuu02 :  4.06e-01   00000uu0u2 :  3.28e-01   00000u20uu : -4.48e-01   
00000u0uu2 :  2.44e-01   00000uuduu : -2.32e-01   00000uu20u :  2.72e-01   
00000u02uu :  1.19e-01   00000duuuu :  2.20e-01   00000u0uu2 : -2.31e-01   
00000uu02u : -1.14e-01   000000u2uu : -2.19e-01   000002uu0u : -1.92e-01   
0000020uuu : -1.04e-01   00000uu2u0 :  1.45e-01   000000uu2u :  1.78e-01   
00000uuu20 : -9.91e-02   00000uuudu :  9.42e-02   0000020uuu :  1.43e-01   
000000uu2u :  8.12e-02   00000uduuu : -8.38e-02   00000uuu20 :  1.31e-01   
0000uuu200 :  7.84e-02   000002u0uu :  7.32e-02   00000uu02u :  6.88e-02   
State 3/5                State 4/5                
00000uuduu :  5.10e-01   00000u20uu : -5.42e-01   
000000uuu2 :  5.02e-01   00000uuu02 :  3.79e-01   
00000u2u0u : -4.89e-01   00000uu20u : -3.70e-01   
000002uuu0 :  2.92e-01   00000u02uu :  3.47e-01   
00000u0u2u : -2.45e-01   00000uu02u :  3.23e-01   
00000uduuu : -1.62e-01   00000u0uu2 :  2.61e-01   
00000uuudu : -1.49e-01   00000u2uu0 : -1.97e-01   
000000u2uu :  8.79e-02   0000002uuu : -1.78e-01   
00000uu2u0 : -6.96e-02   00000uuu20 : -1.48e-01   
00000duuuu : -6.47e-02   000000uu2u :  7.74e-02   
Leading 10 CSFs of 5 local primitive basis functions for fragment 1 in rootspace 27:
State 0/5                State 1/5                State 2/5                
0000uuuuuu :  9.58e-01   000u0uuuuu :  9.91e-01   00u00uuuuu :  9.59e-01   
00u00uuuuu :  2.48e-01   0u0u0uuu0u : -6.41e-02   0000uuuuuu : -2.48e-01   
000uuu0uuu : -6.19e-02   000uu0uuuu :  6.41e-02   00u0u0uuuu :  6.08e-02   
0u00uuuu0u : -6.18e-02   00uu0uu0uu : -6.19e-02   00uu0u0uuu :  6.02e-02   
00u0uuu0uu : -5.98e-02   u00u0uuuu0 : -5.63e-02   u0u00uuuu0 : -5.97e-02   
0u000uuuuu : -5.87e-02   u0uu0uu0u0 : -2.39e-02   0uu00uuu0u : -5.84e-02   
u000uuuuu0 : -5.42e-02   0u0uu0uu0u :  2.28e-02   0uuu0u0u0u :  2.19e-02   
u0u0uuu0u0 : -2.30e-02   00uuu0u0uu :  2.07e-02   0uu0u0uu0u :  2.18e-02   
0u0uuu0u0u : -2.18e-02   u00uu0uuu0 :  1.95e-02   00uuu00uuu : -2.12e-02   
00uuuu00uu : -1.96e-02   0uuu0uu00u : -1.94e-02   u0uu0u0uu0 :  1.91e-02   
State 3/5                State 4/5                
0u000uuuuu :  9.89e-01   u0000uuuuu :  9.90e-01   
0u00u0uuuu :  6.59e-02   u0u00uu0uu :  6.86e-02   
0u0u0u0uuu :  6.54e-02   u00u0u0uuu :  6.38e-02   
0uu00uu0uu :  6.05e-02   u000u0uuuu :  6.36e-02   
0000uuuuuu :  5.71e-02   uu000uuu0u :  6.08e-02   
uu000uuuu0 : -5.48e-02   uu00u0uu0u : -2.27e-02   
uuu00uu0u0 :  2.39e-02   uu0u0u0u0u : -2.25e-02   
0u0uu00uuu : -2.13e-02   u00uu00uuu : -2.14e-02   
0uu0u0u0uu : -2.07e-02   u0u0u0u0uu : -2.04e-02   
0uuu0u00uu : -2.06e-02   u0uu0u00uu : -2.03e-02   
Remaining 1 rootspaces have combined weight = 8.179013e-09
