#INFO: **** input file is /project/lgagliardi/valayagarawal/lasscf/mof_nodes/Al_Fe_Fe/production/20_11/lassi_1_11.py ****
import numpy as np
import sys
from pyscf import gto, scf, tools,lib, mcscf
from pyscf.mcscf import avas,project_init_guess
from pyscf import mcscf
from mrh.my_pyscf.tools import molden
from mrh.my_pyscf.mcscf import lasscf_async as asyn
mol_name='Al_Fe_Fe.xyz' # Al-Fe-Fe MOF node
basis={'C': 'cc-pvdz','H': 'cc-pvdz','O': 'cc-pvtz','Al': 'cc-pvtz','Fe': 'cc-pvtz'}
n=11
output='r1_n'+str(n)+'.log'
mol=gto.M(atom=mol_name,verbose=4,spin=9,charge=0,basis=basis, output=output) #spin = 2S
mf=scf.RHF(mol)
mf.init_guess='atom'
mf=mf.density_fit()
mf.max_cycle=1
mf.kernel()
mf.mo_coeff=np.load('hf.npy')
#np.save('hf',mf.mo_coeff)
#ncas,nelecas,guess_mo_coeff=avas.kernel(mf,['Fe 3d', 'Fe 4d'],minao=mol.basis, openshell_option=3)
#mc_test = mcscf.CASCI (mf, ncas, nelecas)
#tools.molden.from_mo(mol,'avas.molden',guess_mo_coeff[:,mc_test.ncore:][:,:ncas])
#final_list=[5,6,8,9,10,11,12,13,14]#,15,16,17,18,19,20,21,22,23,24,25]+mc_test.ncore

mo_guess=np.load('las_20_11.npy')
las=asyn.LASSCF(mf,(10,10),((1,5),(5,0)),spin_sub=(5,6),verbose=4) # spin is 2S+1
las.set_fragments_(([17],[19]),mo_guess)
las.mo_coeff=mo_guess
from mrh.my_pyscf.lassi import states
las=states.spin_shuffle(las)
#for _ in range(i):
las=states.all_single_excitations(las)
ncsf=las.get_ugg().ncsf_sub
lroots=np.minimum(n,ncsf)
las.lasci()
las.lasci(lroots=lroots)
e_roots, si= las.lassi(opt=1)
from mrh.my_pyscf.lassi.sitools import analyze
analyze(las,si, state=[0,1,2,3,4])
#INFO: ******************** input file end ********************


System: uname_result(system='Linux', node='midway3-0544.rcc.local', release='4.18.0-305.3.1.el8.x86_64', version='#1 SMP Tue Jun 1 16:14:33 UTC 2021', machine='x86_64')  Threads 16
Python 3.9.12 (main, Apr  5 2022, 06:56:58) 
[GCC 7.5.0]
numpy 1.25.0  scipy 1.7.3
Date: Tue Feb 20 18:10:39 2024
PySCF version 2.5.0
PySCF path  /project/lgagliardi/shared/Apps/pyscf
GIT ORIG_HEAD 0bc590ffddec98eec5d2513a3d85274b7a791bc6
GIT HEAD (branch master) 6f8ce439fbe0c26ec4d226e2225b28c7f668f922

[ENV] PYSCF_MAX_MEMORY 128000
[CONFIG] conf_file /home/valayagarawal/.pyscf_conf.py
[INPUT] verbose = 4
[INPUT] num. atoms = 28
[INPUT] num. electrons = 211
[INPUT] charge = 0
[INPUT] spin (= nelec alpha-beta = 2S) = 9
[INPUT] symmetry False subgroup None
[INPUT] Mole.unit = angstrom
[INPUT] Symbol           X                Y                Z      unit          X                Y                Z       unit  Magmom
[INPUT]  1 O     -2.220198244100   0.399190300300   1.694471698900 AA   -4.195566623589   0.754360339150   3.202087436747 Bohr   0.0
[INPUT]  2 O     -1.685553244600  -1.782306321700   1.431399507200 AA   -3.185234000666  -3.368070818094   2.704953043445 Bohr   0.0
[INPUT]  3 C     -2.268517865100  -0.831955037900   1.983951274000 AA   -4.286877473722  -1.572167169583   3.749124552342 Bohr   0.0
[INPUT]  4 H     -2.913342016700  -1.076728588500   2.843786805300 AA   -5.505418518751  -2.034722142755   5.373978218669 Bohr   0.0
[INPUT]  5 O      1.388288080900   2.079556156200  -1.347085675300 AA    2.623484254899   3.929791595871  -2.545622992642 Bohr   0.0
[INPUT]  6 O     -0.759908859500   2.580923634700  -0.849227704000 AA   -1.436019624086   4.877238818000  -1.604807777953 Bohr   0.0
[INPUT]  7 C      0.346567468600   2.753895325000  -1.438835699000 AA    0.654917599338   5.204107939970  -2.719005409357 Bohr   0.0
[INPUT]  8 H      0.372379614500   3.617699659800  -2.123091150300 AA    0.703695485776   6.836461557954  -4.012060811555 Bohr   0.0
[INPUT]  9 O      1.046960908100  -2.642534200000   0.961324672200 AA    1.978469379435  -4.993665912797   1.816640347245 Bohr   0.0
[INPUT] 10 O     -0.399190300300   2.220198244100   1.694471698900 AA   -0.754360339150   4.195566623589   3.202087436747 Bohr   0.0
[INPUT] 11 O      1.782306321700   1.685553244600   1.431399507200 AA    3.368070818094   3.185234000666   2.704953043445 Bohr   0.0
[INPUT] 12 C      0.831955037900   2.268517865100   1.983951274000 AA    1.572167169583   4.286877473722   3.749124552342 Bohr   0.0
[INPUT] 13 H      1.076728588500   2.913342016700   2.843786805300 AA    2.034722142755   5.505418518751   5.373978218669 Bohr   0.0
[INPUT] 14 O     -2.079556156200  -1.388288080900  -1.347085675300 AA   -3.929791595871  -2.623484254899  -2.545622992642 Bohr   0.0
[INPUT] 15 O     -2.580923634700   0.759908859500  -0.849227704000 AA   -4.877238818000   1.436019624086  -1.604807777953 Bohr   0.0
[INPUT] 16 C     -2.753895325000  -0.346567468600  -1.438835699000 AA   -5.204107939970  -0.654917599338  -2.719005409357 Bohr   0.0
[INPUT] 17 H     -3.617699659800  -0.372379614500  -2.123091150300 AA   -6.836461557954  -0.703695485776  -4.012060811555 Bohr   0.0
[INPUT] 18 Fe    -0.379874189300  -1.792603362900  -0.200337730300 AA   -0.717858179568  -3.387529405855  -0.378583442684 Bohr   0.0
[INPUT] 19 O      0.642223180300  -2.237796553000  -1.892914517600 AA    1.213625921614  -4.228822607666  -3.577090015477 Bohr   0.0
[INPUT] 20 Fe     1.792603362900   0.379874189300  -0.200337730300 AA    3.387529405855   0.717858179568  -0.378583442684 Bohr   0.0
[INPUT] 21 O      2.237796553000  -0.642223180300  -1.892914517600 AA    4.228822607666  -1.213625921614  -3.577090015477 Bohr   0.0
[INPUT] 22 O      2.642534200000  -1.046960908100   0.961324672200 AA    4.993665912797  -1.978469379435   1.816640347245 Bohr   0.0
[INPUT] 23 Al    -1.236271642100   1.236271642100   0.350650148000 AA   -2.336214819135   2.336214819135   0.662632745258 Bohr   0.0
[INPUT] 24 O     -0.044950195400   0.044950195400   0.012762141300 AA   -0.084943558552   0.084943558552   0.024116951820 Bohr   0.0
[INPUT] 25 C      1.645528685000  -1.645528685000  -2.357112465400 AA    3.109598544766  -3.109598544766  -4.454297004404 Bohr   0.0
[INPUT] 26 H      2.056906298400  -2.056906298400  -3.294571291600 AA    3.886989567869  -3.886989567869  -6.225837438979 Bohr   0.0
[INPUT] 27 C      2.160924281100  -2.160924281100   1.277584186800 AA    4.083555067202  -4.083555067202   2.414284214127 Bohr   0.0
[INPUT] 28 H      2.796080543300  -2.796080543300   1.918244302400 AA    5.283826449062  -5.283826449062   3.624956371543 Bohr   0.0

nuclear repulsion = 3455.30471244119
number of shells = 192
number of NR pGTOs = 1065
number of NR cGTOs = 674
basis = {'C': 'cc-pvdz', 'H': 'cc-pvdz', 'O': 'cc-pvtz', 'Al': 'cc-pvtz', 'Fe': 'cc-pvtz'}
ecp = {}
CPU time:         1.97


******** <class 'pyscf.df.df_jk.DFROHF'> ********
method = DFROHF
initial guess = atom
damping factor = 0
level_shift factor = 0
DIIS = <class 'pyscf.scf.diis.CDIIS'>
diis_start_cycle = 1
diis_space = 8
diis_damp = 0
SCF conv_tol = 1e-09
SCF conv_tol_grad = None
SCF max_cycles = 1
direct_scf = False
chkfile to save SCF result = /scratch/local/jobs/17478217/tmpymkreisp
max_memory 128000 MB (current use 76 MB)
num. doubly occ = 101  num. singly occ = 9
Set gradient conv threshold to 3.16228e-05
Initial guess from the superpostion of atomic densties.
Spherically averaged atomic HF for {'Fe', 'O', 'C', 'Al', 'H'}


******** <class 'pyscf.scf.atom_hf.AtomSphAverageRHF'> ********
method = AtomSphAverageRHF
initial guess = minao
damping factor = 0
level_shift factor = 0
DIIS = <class 'pyscf.scf.diis.CDIIS'>
diis_start_cycle = 1
diis_space = 8
diis_damp = 0
SCF conv_tol = 1e-09
SCF conv_tol_grad = None
SCF max_cycles = 50
direct_scf = True
direct_scf_tol = 1e-13
chkfile to save SCF result = /scratch/local/jobs/17478217/tmpc9s5f6gm
max_memory 128000 MB (current use 76 MB)
atom = O
Set gradient conv threshold to 3.16228e-05
Initial guess from minao.
init E= -74.2776996160121
cycle= 1 E= -74.2879632957298  delta_E= -0.0103  |g|=    0  |ddm|= 0.12
cycle= 2 E= -74.2889455295059  delta_E= -0.000982  |g|=    0  |ddm|= 0.0571
cycle= 3 E= -74.2891874928551  delta_E= -0.000242  |g|=    0  |ddm|= 0.0164
cycle= 4 E= -74.2891907662377  delta_E= -3.27e-06  |g|=    0  |ddm|= 0.00334
cycle= 5 E= -74.2891907667002  delta_E= -4.63e-10  |g|=    0  |ddm|= 2.73e-05
Extra cycle  E= -74.2891907667016  delta_E= -1.39e-12  |g|=    0  |ddm|= 2.08e-06
Atomic HF for atom  O  converged. SCF energy = -74.2891907667016



******** <class 'pyscf.scf.atom_hf.AtomSphAverageRHF'> ********
method = AtomSphAverageRHF
initial guess = minao
damping factor = 0
level_shift factor = 0
DIIS = <class 'pyscf.scf.diis.CDIIS'>
diis_start_cycle = 1
diis_space = 8
diis_damp = 0
SCF conv_tol = 1e-09
SCF conv_tol_grad = None
SCF max_cycles = 50
direct_scf = True
direct_scf_tol = 1e-13
chkfile to save SCF result = /scratch/local/jobs/17478217/tmpf0lp8sm2
max_memory 128000 MB (current use 96 MB)
atom = C
Set gradient conv threshold to 3.16228e-05
Initial guess from minao.
init E= -37.2786538116583
cycle= 1 E= -37.3229525149147  delta_E= -0.0443  |g|=    0  |ddm|= 0.403
cycle= 2 E= -37.3269979443145  delta_E= -0.00405  |g|=    0  |ddm|= 0.158
cycle= 3 E= -37.327416890501  delta_E= -0.000419  |g|=    0  |ddm|= 0.0324
cycle= 4 E= -37.3274218270201  delta_E= -4.94e-06  |g|=    0  |ddm|= 0.00651
cycle= 5 E= -37.3274218271774  delta_E= -1.57e-10  |g|=    0  |ddm|= 2.35e-05
Extra cycle  E= -37.3274218271781  delta_E= -6.54e-13  |g|=    0  |ddm|= 2.26e-06
Atomic HF for atom  C  converged. SCF energy = -37.3274218271781



******** 1 electron system ********
Atomic HF for atom  H  converged. SCF energy = -0.499278403419583



******** <class 'pyscf.scf.atom_hf.AtomSphAverageRHF'> ********
method = AtomSphAverageRHF
initial guess = minao
damping factor = 0
level_shift factor = 0
DIIS = <class 'pyscf.scf.diis.CDIIS'>
diis_start_cycle = 1
diis_space = 8
diis_damp = 0
SCF conv_tol = 1e-09
SCF conv_tol_grad = None
SCF max_cycles = 50
direct_scf = True
direct_scf_tol = 1e-13
chkfile to save SCF result = /scratch/local/jobs/17478217/tmp5mdtt1es
max_memory 128000 MB (current use 97 MB)
atom = Fe
Set gradient conv threshold to 3.16228e-05
Initial guess from minao.
init E= -1260.96738533155
cycle= 1 E= -1256.37714318082  delta_E= 4.59  |g|=    0  |ddm|= 4.24
cycle= 2 E= -1255.54237595451  delta_E= 0.835  |g|=    0  |ddm|=   15
cycle= 3 E= -1260.89038467173  delta_E= -5.35  |g|=    0  |ddm|= 13.7
cycle= 4 E= -1261.57047534209  delta_E= -0.68  |g|=    0  |ddm|= 0.824
cycle= 5 E= -1261.57622492119  delta_E= -0.00575  |g|=    0  |ddm|= 0.301
cycle= 6 E= -1261.57666902676  delta_E= -0.000444  |g|=    0  |ddm|= 0.0322
cycle= 7 E= -1261.57674274459  delta_E= -7.37e-05  |g|=    0  |ddm|= 0.0137
cycle= 8 E= -1261.57674388082  delta_E= -1.14e-06  |g|=    0  |ddm|= 0.00344
cycle= 9 E= -1261.57674388923  delta_E= -8.41e-09  |g|=    0  |ddm|= 0.000127
cycle= 10 E= -1261.57674388923  delta_E= 2.27e-13  |g|=    0  |ddm|= 3.35e-06
Extra cycle  E= -1261.57674388923  delta_E= 4.55e-13  |g|=    0  |ddm|= 3.97e-07
Atomic HF for atom  Fe  converged. SCF energy = -1261.57674388923



******** <class 'pyscf.scf.atom_hf.AtomSphAverageRHF'> ********
method = AtomSphAverageRHF
initial guess = minao
damping factor = 0
level_shift factor = 0
DIIS = <class 'pyscf.scf.diis.CDIIS'>
diis_start_cycle = 1
diis_space = 8
diis_damp = 0
SCF conv_tol = 1e-09
SCF conv_tol_grad = None
SCF max_cycles = 50
direct_scf = True
direct_scf_tol = 1e-13
chkfile to save SCF result = /scratch/local/jobs/17478217/tmphk4zmqs1
max_memory 128000 MB (current use 111 MB)
atom = Al
Set gradient conv threshold to 3.16228e-05
Initial guess from minao.
init E= -241.752580224975
cycle= 1 E= -241.774394279578  delta_E= -0.0218  |g|=    0  |ddm|= 0.33
cycle= 2 E= -241.774822880148  delta_E= -0.000429  |g|=    0  |ddm|= 0.0589
cycle= 3 E= -241.77484101355  delta_E= -1.81e-05  |g|=    0  |ddm|= 0.00725
cycle= 4 E= -241.774841578884  delta_E= -5.65e-07  |g|=    0  |ddm|= 0.00216
cycle= 5 E= -241.774841604663  delta_E= -2.58e-08  |g|=    0  |ddm|= 0.000719
cycle= 6 E= -241.774841604811  delta_E= -1.48e-10  |g|=    0  |ddm|= 5.97e-05
Extra cycle  E= -241.774841604812  delta_E= -1.48e-12  |g|=    0  |ddm|= 4.44e-06
Atomic HF for atom  Al  converged. SCF energy = -241.774841604812

******** <class 'pyscf.df.df.DF'> ********
auxbasis = None
max_memory = 128000
Even tempered Gaussians are generated as DF auxbasis for  Al Fe O H C
init E= -3975.68788353037
  HOMO = -0.0424478076028944  LUMO = -0.0316668341931079
cycle= 1 E= -3969.65777955844  delta_E= 6.03  |g|= 3.14  |ddm|= 4.67
SCF not converged.
SCF energy = -3969.65777955844
Built 4 spin(local Sz)-shuffled LAS states from 1 reference LAS states
Built 28 singly-excited LAS states from 5 reference LAS states
Entering product-state fixed-point CI iteration
Cycle 0: max grad = 1.884708e-01 ; sigma = 0.000000e+00
Cycle 1: max grad = 1.229424e-05 ; sigma = 3.346305e-02
Cycle 2: max grad = 2.560975e-06 ; sigma = 8.627410e-11
Product_state fixed-point CI iteration converged after 2 cycles
Entering product-state fixed-point CI iteration
Cycle 0: max grad = 1.884708e-01 ; sigma = 0.000000e+00
Cycle 1: max grad = 5.393863e-06 ; sigma = 3.348211e-02
Cycle 2: max grad = 2.369173e-06 ; sigma = 5.279333e-12
Product_state fixed-point CI iteration converged after 2 cycles
Entering product-state fixed-point CI iteration
Cycle 0: max grad = 1.884708e-01 ; sigma = 0.000000e+00
Cycle 1: max grad = 3.475708e-06 ; sigma = 3.349033e-02
Cycle 2: max grad = 2.276478e-06 ; sigma = 6.224354e-12
Product_state fixed-point CI iteration converged after 2 cycles
Entering product-state fixed-point CI iteration
Cycle 0: max grad = 1.884708e-01 ; sigma = 0.000000e+00
Cycle 1: max grad = 3.522775e-06 ; sigma = 3.348759e-02
Cycle 2: max grad = 2.308122e-06 ; sigma = 8.562040e-12
Product_state fixed-point CI iteration converged after 2 cycles
Entering product-state fixed-point CI iteration
Cycle 0: max grad = 1.884708e-01 ; sigma = 0.000000e+00
Cycle 1: max grad = 8.368410e-06 ; sigma = 3.347392e-02
Cycle 2: max grad = 2.455328e-06 ; sigma = 1.881517e-11
Product_state fixed-point CI iteration converged after 2 cycles
Entering product-state fixed-point CI iteration
Cycle 0: max grad = 2.784311e-01 ; sigma = 0.000000e+00
Cycle 1: max grad = 4.634879e-05 ; sigma = 5.318269e-02
Cycle 2: max grad = 5.292951e-07 ; sigma = 5.085563e-08
Cycle 3: max grad = 8.523425e-10 ; sigma = 6.181722e-13
Product_state fixed-point CI iteration converged after 3 cycles
Entering product-state fixed-point CI iteration
Cycle 0: max grad = 3.067236e-01 ; sigma = 0.000000e+00
Cycle 1: max grad = 5.992311e-04 ; sigma = 1.169371e-01
Cycle 2: max grad = 2.250365e-06 ; sigma = 4.611400e-06
Cycle 3: max grad = 9.943609e-07 ; sigma = 9.080736e-12
Product_state fixed-point CI iteration converged after 3 cycles
Entering product-state fixed-point CI iteration
Cycle 0: max grad = 2.327562e-01 ; sigma = 0.000000e+00
Cycle 1: max grad = 5.648643e-04 ; sigma = 4.391494e-02
Cycle 2: max grad = 4.292256e-06 ; sigma = 2.400541e-06
Cycle 3: max grad = 8.594107e-07 ; sigma = 5.904610e-12
Product_state fixed-point CI iteration converged after 3 cycles
Entering product-state fixed-point CI iteration
Cycle 0: max grad = 3.083310e-01 ; sigma = 0.000000e+00
Cycle 1: max grad = 1.806373e-04 ; sigma = 5.815313e-03
Cycle 2: max grad = 3.471513e-06 ; sigma = 1.001354e-06
Cycle 3: max grad = 3.580480e-06 ; sigma = 1.041087e-10
Cycle 4: max grad = 1.643296e-06 ; sigma = 2.600586e-12
Product_state fixed-point CI iteration converged after 4 cycles
Entering product-state fixed-point CI iteration
Cycle 0: max grad = 2.551366e-01 ; sigma = 0.000000e+00
Cycle 1: max grad = 2.036378e-04 ; sigma = 8.150694e-02
Cycle 2: max grad = 1.928086e-06 ; sigma = 9.333423e-07
Cycle 3: max grad = 8.431799e-07 ; sigma = 2.671356e-10
Cycle 4: max grad = 4.869203e-07 ; sigma = 1.118394e-11
Product_state fixed-point CI iteration converged after 4 cycles
Entering product-state fixed-point CI iteration
Cycle 0: max grad = 3.077537e-01 ; sigma = 0.000000e+00
Cycle 1: max grad = 3.556113e-04 ; sigma = 3.436487e-02
Cycle 2: max grad = 1.955002e-06 ; sigma = 2.408482e-07
Cycle 3: max grad = 1.232657e-06 ; sigma = 1.877254e-11
Product_state fixed-point CI iteration converged after 3 cycles
Entering product-state fixed-point CI iteration
Cycle 0: max grad = 2.785850e-01 ; sigma = 0.000000e+00
Cycle 1: max grad = 4.595661e-05 ; sigma = 5.318012e-02
Cycle 2: max grad = 5.618072e-07 ; sigma = 5.927159e-08
Cycle 3: max grad = 7.166693e-10 ; sigma = 6.892265e-13
Product_state fixed-point CI iteration converged after 3 cycles
Entering product-state fixed-point CI iteration
Cycle 0: max grad = 3.067052e-01 ; sigma = 0.000000e+00
Cycle 1: max grad = 5.861469e-04 ; sigma = 1.170948e-01
Cycle 2: max grad = 2.135161e-06 ; sigma = 4.179263e-06
Cycle 3: max grad = 1.320258e-06 ; sigma = 9.030998e-12
Product_state fixed-point CI iteration converged after 3 cycles
Entering product-state fixed-point CI iteration
Cycle 0: max grad = 2.327512e-01 ; sigma = 0.000000e+00
Cycle 1: max grad = 5.626359e-04 ; sigma = 4.458519e-02
Cycle 2: max grad = 4.646999e-06 ; sigma = 4.939012e-06
Cycle 3: max grad = 6.020661e-07 ; sigma = 1.311662e-11
Product_state fixed-point CI iteration converged after 3 cycles
Entering product-state fixed-point CI iteration
Cycle 0: max grad = 3.083128e-01 ; sigma = 0.000000e+00
Cycle 1: max grad = 2.345229e-04 ; sigma = 5.828458e-03
Cycle 2: max grad = 5.566392e-06 ; sigma = 1.777866e-06
Cycle 3: max grad = 1.318146e-06 ; sigma = 3.041407e-10
Cycle 4: max grad = 1.083318e-06 ; sigma = 3.360867e-12
Product_state fixed-point CI iteration converged after 4 cycles
Entering product-state fixed-point CI iteration
Cycle 0: max grad = 2.550410e-01 ; sigma = 0.000000e+00
Cycle 1: max grad = 2.379875e-04 ; sigma = 8.171111e-02
Cycle 2: max grad = 1.927086e-06 ; sigma = 1.317811e-06
Cycle 3: max grad = 9.762213e-07 ; sigma = 3.389573e-10
Cycle 4: max grad = 5.648514e-07 ; sigma = 1.474376e-11
Product_state fixed-point CI iteration converged after 4 cycles
Entering product-state fixed-point CI iteration
Cycle 0: max grad = 3.077285e-01 ; sigma = 0.000000e+00
Cycle 1: max grad = 3.454360e-04 ; sigma = 3.460276e-02
Cycle 2: max grad = 2.317995e-06 ; sigma = 4.272844e-07
Cycle 3: max grad = 1.132493e-06 ; sigma = 8.824941e-12
Product_state fixed-point CI iteration converged after 3 cycles
Entering product-state fixed-point CI iteration
Cycle 0: max grad = 2.786705e-01 ; sigma = 0.000000e+00
Cycle 1: max grad = 4.651225e-05 ; sigma = 5.317862e-02
Cycle 2: max grad = 5.794670e-07 ; sigma = 6.407411e-08
Cycle 3: max grad = 6.451033e-10 ; sigma = 6.394885e-13
Product_state fixed-point CI iteration converged after 3 cycles
Entering product-state fixed-point CI iteration
Cycle 0: max grad = 3.067015e-01 ; sigma = 0.000000e+00
Cycle 1: max grad = 5.835233e-04 ; sigma = 1.171264e-01
Cycle 2: max grad = 2.112375e-06 ; sigma = 4.118257e-06
Cycle 3: max grad = 1.202589e-06 ; sigma = 7.389644e-12
Product_state fixed-point CI iteration converged after 3 cycles
Entering product-state fixed-point CI iteration
Cycle 0: max grad = 2.327502e-01 ; sigma = 0.000000e+00
Cycle 1: max grad = 5.629732e-04 ; sigma = 4.471923e-02
Cycle 2: max grad = 4.715402e-06 ; sigma = 5.349624e-06
Cycle 3: max grad = 5.617916e-07 ; sigma = 1.447731e-11
Product_state fixed-point CI iteration converged after 3 cycles
Entering product-state fixed-point CI iteration
Cycle 0: max grad = 3.083092e-01 ; sigma = 0.000000e+00
Cycle 1: max grad = 2.491446e-04 ; sigma = 5.831027e-03
Cycle 2: max grad = 6.002161e-06 ; sigma = 1.870328e-06
Cycle 3: max grad = 1.760538e-06 ; sigma = 3.921770e-10
Cycle 4: max grad = 1.220893e-06 ; sigma = 1.054445e-11
Product_state fixed-point CI iteration converged after 4 cycles
Entering product-state fixed-point CI iteration
Cycle 0: max grad = 2.550219e-01 ; sigma = 0.000000e+00
Cycle 1: max grad = 2.449739e-04 ; sigma = 8.175297e-02
Cycle 2: max grad = 1.955722e-06 ; sigma = 1.402521e-06
Cycle 3: max grad = 1.005238e-06 ; sigma = 3.552074e-10
Cycle 4: max grad = 5.831845e-07 ; sigma = 1.566747e-11
Product_state fixed-point CI iteration converged after 4 cycles
Entering product-state fixed-point CI iteration
Cycle 0: max grad = 3.077235e-01 ; sigma = 0.000000e+00
Cycle 1: max grad = 3.433519e-04 ; sigma = 3.465135e-02
Cycle 2: max grad = 2.389028e-06 ; sigma = 4.710339e-07
Cycle 3: max grad = 1.062282e-06 ; sigma = 6.529888e-12
Product_state fixed-point CI iteration converged after 3 cycles
Entering product-state fixed-point CI iteration
Cycle 0: max grad = 2.786876e-01 ; sigma = 0.000000e+00
Cycle 1: max grad = 4.673089e-05 ; sigma = 5.317831e-02
Cycle 2: max grad = 5.829607e-07 ; sigma = 6.504436e-08
Cycle 3: max grad = 6.311479e-10 ; sigma = 6.110668e-13
Product_state fixed-point CI iteration converged after 3 cycles
Entering product-state fixed-point CI iteration
Cycle 0: max grad = 3.067125e-01 ; sigma = 0.000000e+00
Cycle 1: max grad = 5.913872e-04 ; sigma = 1.170316e-01
Cycle 2: max grad = 2.179901e-06 ; sigma = 4.326966e-06
Cycle 3: max grad = 2.905984e-07 ; sigma = 7.261747e-12
Product_state fixed-point CI iteration converged after 3 cycles
Entering product-state fixed-point CI iteration
Cycle 0: max grad = 2.327532e-01 ; sigma = 0.000000e+00
Cycle 1: max grad = 5.619537e-04 ; sigma = 4.431709e-02
Cycle 2: max grad = 4.507687e-06 ; sigma = 4.019992e-06
Cycle 3: max grad = 6.936838e-07 ; sigma = 1.054801e-11
Product_state fixed-point CI iteration converged after 3 cycles
Entering product-state fixed-point CI iteration
Cycle 0: max grad = 3.083201e-01 ; sigma = 0.000000e+00
Cycle 1: max grad = 2.055908e-04 ; sigma = 5.823260e-03
Cycle 2: max grad = 4.711353e-06 ; sigma = 1.531160e-06
Cycle 3: max grad = 2.353117e-06 ; sigma = 2.384013e-10
Cycle 4: max grad = 1.042747e-06 ; sigma = 9.180212e-12
Product_state fixed-point CI iteration converged after 4 cycles
Entering product-state fixed-point CI iteration
Cycle 0: max grad = 2.550792e-01 ; sigma = 0.000000e+00
Cycle 1: max grad = 2.241311e-04 ; sigma = 8.162841e-02
Cycle 2: max grad = 1.913730e-06 ; sigma = 1.156262e-06
Cycle 3: max grad = 9.208399e-07 ; sigma = 3.084288e-10
Cycle 4: max grad = 5.292846e-07 ; sigma = 1.310596e-11
Product_state fixed-point CI iteration converged after 4 cycles
Entering product-state fixed-point CI iteration
Cycle 0: max grad = 3.077386e-01 ; sigma = 0.000000e+00
Cycle 1: max grad = 3.495559e-04 ; sigma = 3.450660e-02
Cycle 2: max grad = 2.174276e-06 ; sigma = 3.461726e-07
Cycle 3: max grad = 1.213587e-06 ; sigma = 1.322320e-11
Product_state fixed-point CI iteration converged after 3 cycles
Entering product-state fixed-point CI iteration
Cycle 0: max grad = 2.786363e-01 ; sigma = 0.000000e+00
Cycle 1: max grad = 4.607566e-05 ; sigma = 5.317923e-02
Cycle 2: max grad = 5.724407e-07 ; sigma = 6.214308e-08
Cycle 3: max grad = 6.733785e-10 ; sigma = 6.465939e-13
Product_state fixed-point CI iteration converged after 3 cycles
Entering product-state fixed-point CI iteration
Cycle 0: max grad = 2.327602e-01 ; sigma = 0.000000e+00
Cycle 1: max grad = 6.209126e-04 ; sigma = 4.337872e-02
Cycle 2: max grad = 3.992423e-06 ; sigma = 1.978466e-07
Cycle 3: max grad = 1.137854e-06 ; sigma = 3.979039e-12
Product_state fixed-point CI iteration converged after 3 cycles
Entering product-state fixed-point CI iteration
Cycle 0: max grad = 3.077738e-01 ; sigma = 0.000000e+00
Cycle 1: max grad = 3.634427e-04 ; sigma = 3.418067e-02
Cycle 2: max grad = 3.346335e-06 ; sigma = 1.317945e-07
Cycle 3: max grad = 4.962140e-07 ; sigma = 9.585222e-12
Product_state fixed-point CI iteration converged after 3 cycles
Entering product-state fixed-point CI iteration
Cycle 0: max grad = 2.785166e-01 ; sigma = 0.000000e+00
Cycle 1: max grad = 4.605856e-05 ; sigma = 5.318129e-02
Cycle 2: max grad = 5.474639e-07 ; sigma = 5.549294e-08
Cycle 3: max grad = 7.759523e-10 ; sigma = 5.826450e-13
Product_state fixed-point CI iteration converged after 3 cycles
LASSCF state-average energy = -3971.89018525224
LASSCF state 0 energy = -3971.89018525224
LASSCF state 1 energy = -3971.89049467745
LASSCF state 2 energy = -3971.8906273398
LASSCF state 3 energy = -3971.89058311557
LASSCF state 4 energy = -3971.89036204604
LASSCF state 5 energy = -3969.48093908276
LASSCF state 6 energy = -3970.98995513759
LASSCF state 7 energy = -3969.569277641
LASSCF state 8 energy = -3971.5111195471
LASSCF state 9 energy = -3969.35032714229
LASSCF state 10 energy = -3971.64263382622
LASSCF state 11 energy = -3969.48199401442
LASSCF state 12 energy = -3970.99011278563
LASSCF state 13 energy = -3969.56971596364
LASSCF state 14 energy = -3971.51146460594
LASSCF state 15 energy = -3969.3507335344
LASSCF state 16 energy = -3971.64312475168
LASSCF state 17 energy = -3969.48258018069
LASSCF state 18 energy = -3970.99014433942
LASSCF state 19 energy = -3969.56980395116
LASSCF state 20 energy = -3971.51153490949
LASSCF state 21 energy = -3969.35081586567
LASSCF state 22 energy = -3971.64322411903
LASSCF state 23 energy = -3969.48269742185
LASSCF state 24 energy = -3970.99004970236
LASSCF state 25 energy = -3969.56954031213
LASSCF state 26 energy = -3971.51132530586
LASSCF state 27 energy = -3969.35056993026
LASSCF state 28 energy = -3971.64292719394
LASSCF state 29 energy = -3969.48234570627
LASSCF state 30 energy = -3969.56892890982
LASSCF state 31 energy = -3971.64224828029
LASSCF state 32 energy = -3969.48152512913
Entering product-state fixed-point CI iteration
Cycle 0: max grad = 8.199485e+02 ; sigma = 0.000000e+00
Cycle 1: max grad = 1.516780e-04 ; sigma = 6.293988e-11
Cycle 2: max grad = 1.373799e-06 ; sigma = 4.973799e-14
Product_state fixed-point CI iteration converged after 2 cycles
Entering product-state fixed-point CI iteration
Cycle 0: max grad = 8.199906e+02 ; sigma = 0.000000e+00
Cycle 1: max grad = 2.022205e-04 ; sigma = 5.989875e-11
Cycle 2: max grad = 1.233499e-06 ; sigma = 1.065814e-13
Product_state fixed-point CI iteration converged after 2 cycles
Entering product-state fixed-point CI iteration
Cycle 0: max grad = 8.200089e+02 ; sigma = 0.000000e+00
Cycle 1: max grad = 1.804227e-04 ; sigma = 5.865530e-11
Cycle 2: max grad = 1.163693e-06 ; sigma = 8.526513e-14
Product_state fixed-point CI iteration converged after 2 cycles
Entering product-state fixed-point CI iteration
Cycle 0: max grad = 8.200028e+02 ; sigma = 0.000000e+00
Cycle 1: max grad = 2.725963e-04 ; sigma = 5.903189e-11
Cycle 2: max grad = 1.272668e-06 ; sigma = 1.136868e-13
Product_state fixed-point CI iteration converged after 2 cycles
Entering product-state fixed-point CI iteration
Cycle 0: max grad = 8.199725e+02 ; sigma = 0.000000e+00
Cycle 1: max grad = 1.277738e-04 ; sigma = 6.117773e-11
Cycle 2: max grad = 2.736655e-06 ; sigma = 4.973799e-14
Product_state fixed-point CI iteration converged after 2 cycles
Entering product-state fixed-point CI iteration
Cycle 0: max grad = 4.571038e+02 ; sigma = 0.000000e+00
Cycle 1: max grad = 1.825551e-11 ; sigma = 2.842171e-14
Product_state fixed-point CI iteration converged after 1 cycles
Entering product-state fixed-point CI iteration
Cycle 0: max grad = 7.565175e+02 ; sigma = 0.000000e+00
Cycle 1: max grad = 1.634164e-06 ; sigma = 9.245582e-11
Product_state fixed-point CI iteration converged after 1 cycles
Entering product-state fixed-point CI iteration
Cycle 0: max grad = 5.030156e+02 ; sigma = 0.000000e+00
Cycle 1: max grad = 1.268335e-06 ; sigma = 6.604495e-11
Product_state fixed-point CI iteration converged after 1 cycles
Entering product-state fixed-point CI iteration
Cycle 0: max grad = 5.261284e+02 ; sigma = 0.000000e+00
Cycle 1: max grad = 7.758554e-03 ; sigma = 1.180172e-03
Cycle 2: max grad = 1.539441e-06 ; sigma = 1.799104e-07
Cycle 3: max grad = 1.613942e-06 ; sigma = 1.038103e-11
Product_state fixed-point CI iteration converged after 3 cycles
Entering product-state fixed-point CI iteration
Cycle 0: max grad = 5.240039e+02 ; sigma = 0.000000e+00
Cycle 1: max grad = 1.851136e-04 ; sigma = 1.215504e-03
Cycle 2: max grad = 1.663055e-06 ; sigma = 4.569064e-07
Cycle 3: max grad = 1.906543e-06 ; sigma = 2.390621e-11
Product_state fixed-point CI iteration converged after 3 cycles
Entering product-state fixed-point CI iteration
Cycle 0: max grad = 6.897642e+02 ; sigma = 0.000000e+00
Cycle 1: max grad = 3.945790e-03 ; sigma = 3.281997e-11
Cycle 2: max grad = 1.625091e-06 ; sigma = 7.105427e-14
Product_state fixed-point CI iteration converged after 2 cycles
Entering product-state fixed-point CI iteration
Cycle 0: max grad = 4.570901e+02 ; sigma = 0.000000e+00
Cycle 1: max grad = 1.709667e-11 ; sigma = 3.197442e-14
Product_state fixed-point CI iteration converged after 1 cycles
Entering product-state fixed-point CI iteration
Cycle 0: max grad = 7.562371e+02 ; sigma = 0.000000e+00
Cycle 1: max grad = 1.484823e-06 ; sigma = 9.055157e-11
Product_state fixed-point CI iteration converged after 1 cycles
Entering product-state fixed-point CI iteration
Cycle 0: max grad = 5.030044e+02 ; sigma = 0.000000e+00
Cycle 1: max grad = 1.051291e-06 ; sigma = 8.443735e-11
Product_state fixed-point CI iteration converged after 1 cycles
Entering product-state fixed-point CI iteration
Cycle 0: max grad = 6.898583e+02 ; sigma = 0.000000e+00
Cycle 1: max grad = 3.893534e-03 ; sigma = 1.431940e-03
Cycle 2: max grad = 1.992196e-06 ; sigma = 5.088454e-07
Cycle 3: max grad = 1.792325e-06 ; sigma = 3.461125e-10
Cycle 4: max grad = 1.128784e-06 ; sigma = 2.614797e-12
Product_state fixed-point CI iteration converged after 4 cycles
Entering product-state fixed-point CI iteration
Cycle 0: max grad = 5.181722e+02 ; sigma = 0.000000e+00
Cycle 1: max grad = 1.659580e-04 ; sigma = 1.541943e-03
Cycle 2: max grad = 1.174446e-06 ; sigma = 2.170459e-07
Cycle 3: max grad = 1.152322e-06 ; sigma = 1.897149e-11
Product_state fixed-point CI iteration converged after 3 cycles
Entering product-state fixed-point CI iteration
Cycle 0: max grad = 4.568681e+02 ; sigma = 0.000000e+00
Cycle 1: max grad = 2.262042e-03 ; sigma = 2.377476e-11
Cycle 2: max grad = 1.233107e-06 ; sigma = 1.421085e-13
Product_state fixed-point CI iteration converged after 2 cycles
Entering product-state fixed-point CI iteration
Cycle 0: max grad = 4.570824e+02 ; sigma = 0.000000e+00
Cycle 1: max grad = 1.655807e-11 ; sigma = 2.131628e-14
Product_state fixed-point CI iteration converged after 1 cycles
Entering product-state fixed-point CI iteration
Cycle 0: max grad = 7.561890e+02 ; sigma = 0.000000e+00
Cycle 1: max grad = 1.236848e-06 ; sigma = 7.780443e-11
Product_state fixed-point CI iteration converged after 1 cycles
Entering product-state fixed-point CI iteration
Cycle 0: max grad = 5.030023e+02 ; sigma = 0.000000e+00
Cycle 1: max grad = 1.307047e-06 ; sigma = 9.221424e-11
Product_state fixed-point CI iteration converged after 1 cycles
Entering product-state fixed-point CI iteration
Cycle 0: max grad = 6.901726e+02 ; sigma = 0.000000e+00
Cycle 1: max grad = 2.940640e-03 ; sigma = 1.484257e-03
Cycle 2: max grad = 2.440656e-06 ; sigma = 8.707187e-07
Cycle 3: max grad = 1.699430e-06 ; sigma = 8.751257e-10
Cycle 4: max grad = 1.219358e-06 ; sigma = 2.877698e-12
Product_state fixed-point CI iteration converged after 4 cycles
Entering product-state fixed-point CI iteration
Cycle 0: max grad = 5.169790e+02 ; sigma = 0.000000e+00
Cycle 1: max grad = 1.622624e-04 ; sigma = 1.608640e-03
Cycle 2: max grad = 1.065110e-06 ; sigma = 1.826412e-07
Cycle 3: max grad = 1.175142e-06 ; sigma = 1.804423e-11
Product_state fixed-point CI iteration converged after 3 cycles
Entering product-state fixed-point CI iteration
Cycle 0: max grad = 4.568668e+02 ; sigma = 0.000000e+00
Cycle 1: max grad = 2.052698e-03 ; sigma = 2.192735e-11
Cycle 2: max grad = 2.764625e-06 ; sigma = 2.060574e-13
Product_state fixed-point CI iteration converged after 2 cycles
Entering product-state fixed-point CI iteration
Cycle 0: max grad = 4.570809e+02 ; sigma = 0.000000e+00
Cycle 1: max grad = 1.646351e-11 ; sigma = 6.394885e-14
Product_state fixed-point CI iteration converged after 1 cycles
Entering product-state fixed-point CI iteration
Cycle 0: max grad = 7.563471e+02 ; sigma = 0.000000e+00
Cycle 1: max grad = 1.132521e-06 ; sigma = 1.221423e-11
Product_state fixed-point CI iteration converged after 1 cycles
Entering product-state fixed-point CI iteration
Cycle 0: max grad = 5.030088e+02 ; sigma = 0.000000e+00
Cycle 1: max grad = 1.044209e-06 ; sigma = 7.365841e-11
Product_state fixed-point CI iteration converged after 1 cycles
Entering product-state fixed-point CI iteration
Cycle 0: max grad = 6.892177e+02 ; sigma = 0.000000e+00
Cycle 1: max grad = 4.500366e-03 ; sigma = 1.329262e-03
Cycle 2: max grad = 2.155672e-06 ; sigma = 9.446117e-08
Cycle 3: max grad = 1.356435e-06 ; sigma = 1.850964e-11
Product_state fixed-point CI iteration converged after 3 cycles
Entering product-state fixed-point CI iteration
Cycle 0: max grad = 5.205324e+02 ; sigma = 0.000000e+00
Cycle 1: max grad = 1.734811e-04 ; sigma = 1.409890e-03
Cycle 2: max grad = 1.441347e-06 ; sigma = 2.990494e-07
Cycle 3: max grad = 1.557060e-06 ; sigma = 2.225065e-11
Product_state fixed-point CI iteration converged after 3 cycles
Entering product-state fixed-point CI iteration
Cycle 0: max grad = 6.910475e+02 ; sigma = 0.000000e+00
Cycle 1: max grad = 3.913092e-03 ; sigma = 2.754774e-11
Cycle 2: max grad = 1.592533e-06 ; sigma = 1.918465e-13
Product_state fixed-point CI iteration converged after 2 cycles
Entering product-state fixed-point CI iteration
Cycle 0: max grad = 4.570855e+02 ; sigma = 0.000000e+00
Cycle 1: max grad = 1.676326e-11 ; sigma = 8.881784e-14
Product_state fixed-point CI iteration converged after 1 cycles
Entering product-state fixed-point CI iteration
Cycle 0: max grad = 6.693637e+02 ; sigma = 0.000000e+00
Cycle 1: max grad = 1.325774e-06 ; sigma = 6.890133e-11
Product_state fixed-point CI iteration converged after 1 cycles
Entering product-state fixed-point CI iteration
Cycle 0: max grad = 6.878977e+02 ; sigma = 0.000000e+00
Cycle 1: max grad = 3.372701e-03 ; sigma = 1.083578e-11
Cycle 2: max grad = 2.619608e-06 ; sigma = 2.131628e-14
Product_state fixed-point CI iteration converged after 2 cycles
Entering product-state fixed-point CI iteration
Cycle 0: max grad = 4.570962e+02 ; sigma = 0.000000e+00
Cycle 1: max grad = 1.758049e-11 ; sigma = 7.105427e-15
Product_state fixed-point CI iteration converged after 1 cycles
LASSCF state-average energy = -3971.8901852523
LASSCF state 0 energy = -3971.8901852523
LASSCF state 1 energy = -3971.89049467751
LASSCF state 2 energy = -3971.89062733986
LASSCF state 3 energy = -3971.89058311563
LASSCF state 4 energy = -3971.89036204611
LASSCF state 5 energy = -3969.48093908276
LASSCF state 6 energy = -3970.98995513768
LASSCF state 7 energy = -3969.56927764107
LASSCF state 8 energy = -3971.51229990126
LASSCF state 9 energy = -3969.35154310363
LASSCF state 10 energy = -3971.64263382626
LASSCF state 11 energy = -3969.48199401442
LASSCF state 12 energy = -3970.99011278572
LASSCF state 13 energy = -3969.56971596372
LASSCF state 14 energy = -3971.5128970515
LASSCF state 15 energy = -3969.3522756948
LASSCF state 16 energy = -3971.6431247517
LASSCF state 17 energy = -3969.48258018069
LASSCF state 18 energy = -3970.9901443395
LASSCF state 19 energy = -3969.56980395125
LASSCF state 20 energy = -3971.51302003568
LASSCF state 21 energy = -3969.35242468793
LASSCF state 22 energy = -3971.64322411905
LASSCF state 23 energy = -3969.48269742185
LASSCF state 24 energy = -3970.99004970238
LASSCF state 25 energy = -3969.56954031221
LASSCF state 26 energy = -3971.51265466075
LASSCF state 27 energy = -3969.35198011903
LASSCF state 28 energy = -3971.64292719396
LASSCF state 29 energy = -3969.48234570627
LASSCF state 30 energy = -3969.56892890989
LASSCF state 31 energy = -3971.6422482803
LASSCF state 32 energy = -3969.48152512913
LASSI op_o0 memory check: 1134285.731712 MB needed of 120085.909504 MB available (128000 MB max)
Symmetry analysis of 33 LAS rootspaces:
 ix            Energy  <S**2>  Neleca  Nelecb  Nelec   Wfnsym
  0  -3971.8901852523   4.750       6       5      11       A
  1  -3971.8904946775  11.750       6       5      11       A
  2  -3971.8906273399  14.750       6       5      11       A
  3  -3971.8905831156  13.750       6       5      11       A
  4  -3971.8903620461   8.750       6       5      11       A
  5  -3969.4809390828   5.750       6       5      11       A
  6  -3970.9899551377   3.750       6       5      11       A
  7  -3969.5692776411   8.750       6       5      11       A
  8  -3971.5122999013   3.750       6       5      11       A
  9  -3969.3515431036   9.750       6       5      11       A
 10  -3971.6426338263   8.750       6       5      11       A
 11  -3969.4819940144  14.750       6       5      11       A
 12  -3970.9901127857   8.750       6       5      11       A
 13  -3969.5697159637  13.750       6       5      11       A
 14  -3971.5128970515   8.750       6       5      11       A
 15  -3969.3522756948  14.750       6       5      11       A
 16  -3971.6431247517  13.750       6       5      11       A
 17  -3969.4825801807  19.750       6       5      11       A
 18  -3970.9901443395   9.750       6       5      11       A
 19  -3969.5698039513  14.750       6       5      11       A
 20  -3971.5130200357   9.750       6       5      11       A
 21  -3969.3524246879  15.750       6       5      11       A
 22  -3971.6432241191  14.750       6       5      11       A
 23  -3969.4826974219  20.750       6       5      11       A
 24  -3970.9900497024   6.750       6       5      11       A
 25  -3969.5695403122  11.750       6       5      11       A
 26  -3971.5126546607   6.750       6       5      11       A
 27  -3969.3519801190  12.750       6       5      11       A
 28  -3971.6429271940  11.750       6       5      11       A
 29  -3969.4823457063  17.750       6       5      11       A
 30  -3969.5689289099   4.750       6       5      11       A
 31  -3971.6422482803   4.750       6       5      11       A
 32  -3969.4815251291  10.750       6       5      11       A
Build + diag H matrix LASSI symmetry block 0
['neleca', 'nelecb', 'irrep'] = (6, 5, 0)
(33 rootspaces; 3993 states)
LASSI eigenvalues (3993 total):
 ix            Energy  <S**2>  Neleca  Nelecb  Wfnsym
  0  -3971.8913465186   1.332       6       5       A
  1  -3971.8913384833   3.393       6       5       A
  2  -3971.8913290639   8.572       6       5       A
  3  -3971.8913201664  15.702       6       5       A
  4  -3971.8913175370  24.750       6       5       A
  5  -3971.8719491707   0.750       6       5       A
  6  -3971.8718637500   3.750       6       5       A
  7  -3971.8717211188   8.750       6       5       A
  8  -3971.8715204045  15.750       6       5       A
  9  -3971.8712605278  24.750       6       5       A
 10  -3971.8706871056   0.751       6       5       A
 11  -3971.8706337749   3.750       6       5       A
 12  -3971.8705445500   8.750       6       5       A
 13  -3971.8704173398  15.750       6       5       A
 14  -3971.8702497215  24.750       6       5       A
 15  -3971.8472873963  24.750       6       5       A
 16  -3971.8469626074  15.750       6       5       A
 17  -3971.8467062388   8.750       6       5       A
 18  -3971.8465212499   3.750       6       5       A
 19  -3971.8464102524   0.750       6       5       A
 20  -3971.8246070162   4.161       6       5       A
 21  -3971.8246053415  11.362       6       5       A
 22  -3971.8246042713   9.830       6       5       A
 23  -3971.8246022907  24.745       6       5       A
 24  -3971.8246013347   3.652       6       5       A
 25  -3971.6435951836  24.750       6       5       A
 26  -3971.6429032333  15.750       6       5       A
 27  -3971.6423935230   8.750       6       5       A
 28  -3971.6420450413   3.750       6       5       A
 29  -3971.6418422577   0.750       6       5       A
 30  -3971.6416933406  24.750       6       5       A
 31  -3971.6405362225  15.750       6       5       A
 32  -3971.6396269461   8.750       6       5       A
 33  -3971.6389724212   3.750       6       5       A
 34  -3971.6385776667   0.750       6       5       A
 35  -3971.6357251502  24.750       6       5       A
 36  -3971.6345336322  15.750       6       5       A
 37  -3971.6335943743   8.750       6       5       A
 38  -3971.6329170412   3.750       6       5       A
 39  -3971.6325081421   0.750       6       5       A
 40  -3971.6269257230  24.750       6       5       A
 41  -3971.6265077307  15.750       6       5       A
 42  -3971.6261475302   8.750       6       5       A
 43  -3971.6258707083   3.750       6       5       A
 44  -3971.6256966130   0.750       6       5       A
 45  -3971.6008157821  24.750       6       5       A
 46  -3971.5994952042  15.750       6       5       A
 47  -3971.5984612529   8.750       6       5       A
 48  -3971.5977189760   3.750       6       5       A
 49  -3971.5972720863   0.750       6       5       A
 50  -3971.5140276010  15.750       6       5       A
 51  -3971.5133391317   8.750       6       5       A
 52  -3971.5128904965   3.750       6       5       A
 53  -3971.5126371791   0.750       6       5       A
 54  -3971.5119965763  15.750       6       5       A
 55  -3971.5115148199   8.750       6       5       A
 56  -3971.5115052147  15.750       6       5       A
 57  -3971.5111860416   3.750       6       5       A
 58  -3971.5109935890   0.750       6       5       A
 59  -3971.5102222293   8.750       6       5       A
 60  -3971.5100760170  15.750       6       5       A
 61  -3971.5095249193  15.750       6       5       A
 62  -3971.5094627979   8.750       6       5       A
 63  -3971.5093506299   3.750       6       5       A
 64  -3971.5090420328   3.750       6       5       A
 65  -3971.5088478190   0.750       6       5       A
 66  -3971.5088213545   8.750       6       5       A
 67  -3971.5087962969   0.750       6       5       A
 68  -3971.5083348519   3.750       6       5       A
 69  -3971.5080487045   0.750       6       5       A
 70  -3971.5076144940  15.750       6       5       A
 71  -3971.5065445720   8.750       6       5       A
 72  -3971.5057489986   3.750       6       5       A
 73  -3971.5055181384  15.750       6       5       A
 74  -3971.5052568106   0.750       6       5       A
 75  -3971.5042091661   8.750       6       5       A
 76  -3971.5035267170  15.750       6       5       A
 77  -3971.5033182136   3.750       6       5       A
 78  -3971.5028033172   0.750       6       5       A
 79  -3971.5027504262   8.750       6       5       A
 80  -3971.5022106502   3.750       6       5       A
 81  -3971.5018919976   0.750       6       5       A
 82  -3971.5016696082  15.750       6       5       A
 83  -3971.5005728617   8.750       6       5       A
 84  -3971.4997614372   3.750       6       5       A
 85  -3971.4992611630   0.750       6       5       A
 86  -3971.4974774142  15.750       6       5       A
 87  -3971.4968748618   8.750       6       5       A
 88  -3971.4964315619   3.750       6       5       A
 89  -3971.4961620730   0.750       6       5       A
 90  -3971.4959104863  15.750       6       5       A
 91  -3971.4955368663   8.750       6       5       A
 92  -3971.4953113170   3.750       6       5       A
 93  -3971.4951851005   0.750       6       5       A
 94  -3971.4944280164  15.750       6       5       A
 95  -3971.4944108176  15.750       6       5       A
 96  -3971.4937540999   8.750       6       5       A
 97  -3971.4937484385   8.750       6       5       A
 98  -3971.4935548373  15.750       6       5       A
 99  -3971.4933025273   3.750       6       5       A
Remaining 3893 eigenvalues truncated; increase verbosity to print them all
Natural-orbital analysis for state(s) [0, 1, 2, 3, 4]
LASSI op_o0 memory check: 1134285.731712 MB needed of 119624.257536 MB available (128000 MB max)
Delocalized natural orbitals do not reflect LAS fragmentation
Natural occ [1.9869799  1.03005885 1.00932787 1.00676292 1.00142877 0.99778458
 0.99278412 0.98734331 0.98476246 0.96393242 0.01195436 0.00422688
 0.00406959 0.0038965  0.00347715 0.00229423 0.00228714 0.002271
 0.00224619 0.00211175]
Natural orbital (expansion on AOs) in CAS space
               #1        #2        #3        #4        #5       
0 O 1s          -0.00011  -0.00020   0.00014   0.00030  -0.00025
0 O 2s           0.00161   0.00115  -0.00069   0.00177   0.00119
0 O 3s           0.00057   0.00042  -0.00028   0.00042   0.00044
0 O 4s           0.00479   0.00435  -0.00128  -0.00250   0.00418
0 O 2px          0.00477   0.00002   0.00006   0.00556  -0.00061
0 O 2py          0.00048  -0.00152   0.00193   0.00143  -0.00182
0 O 2pz          0.00215   0.00115  -0.00172  -0.00211   0.00126
0 O 3px          0.00569   0.00024   0.00025   0.00668  -0.00044
0 O 3py          0.00040  -0.00160   0.00193   0.00145  -0.00200
0 O 3pz          0.00283   0.00128  -0.00190  -0.00254   0.00127
0 O 4px          0.00791  -0.00033  -0.00014   0.00694  -0.00167
0 O 4py          0.00001  -0.00361   0.00446   0.00270  -0.00351
0 O 4pz          0.00397   0.00199  -0.00405  -0.00158   0.00269
0 O 3dxy         0.00012   0.00002  -0.00004   0.00003  -0.00001
0 O 3dyz         0.00007   0.00002   0.00000   0.00006   0.00002
0 O 3dz^2       -0.00003   0.00002  -0.00002  -0.00008  -0.00001
0 O 3dxz        -0.00004   0.00002   0.00001   0.00001   0.00006
0 O 3dx2-y2      0.00004   0.00003  -0.00004  -0.00006   0.00002
0 O 4dxy         0.00026  -0.00016  -0.00004  -0.00018  -0.00033
0 O 4dyz         0.00011   0.00021  -0.00005   0.00024   0.00041
0 O 4dz^2       -0.00016  -0.00016   0.00015  -0.00016  -0.00022
0 O 4dxz         0.00015  -0.00001  -0.00008   0.00037   0.00019
0 O 4dx2-y2     -0.00017  -0.00002   0.00008  -0.00016  -0.00018
0 O 4f-3         0.00003   0.00003  -0.00005  -0.00000   0.00006
0 O 4f-2         0.00003   0.00000  -0.00003  -0.00006  -0.00004
0 O 4f-1        -0.00001   0.00003  -0.00003   0.00005   0.00007
0 O 4f+0         0.00001   0.00001   0.00001   0.00006   0.00003
0 O 4f+1        -0.00001   0.00000   0.00001  -0.00003  -0.00001
0 O 4f+2         0.00000  -0.00001   0.00002   0.00009   0.00004
0 O 4f+3         0.00003  -0.00001  -0.00002  -0.00005  -0.00007
1 O 1s           0.00030   0.00007   0.00020   0.00018  -0.00007
1 O 2s           0.00692  -0.00837   0.00319  -0.00197  -0.02321
1 O 3s           0.00195  -0.00242   0.00078  -0.00066  -0.00672
1 O 4s           0.01122  -0.01661   0.00264  -0.00635  -0.04024
1 O 2px         -0.00520  -0.00829   0.00812  -0.00368  -0.01425
1 O 2py         -0.00725  -0.00466   0.00869   0.00698  -0.00090
1 O 2pz         -0.00492   0.00891  -0.00617  -0.00912   0.01833
1 O 3px         -0.00588  -0.01089   0.01053  -0.00459  -0.01833
1 O 3py         -0.00814  -0.00600   0.01072   0.00866  -0.00237
1 O 3pz         -0.00598   0.01180  -0.00809  -0.01129   0.02371
1 O 4px         -0.01105  -0.01206   0.00947  -0.00422  -0.01992
1 O 4py         -0.01203  -0.00794   0.01248   0.00641  -0.00345
1 O 4pz         -0.00705   0.01309  -0.00707  -0.01393   0.02657
1 O 3dxy         0.00024  -0.00002  -0.00023  -0.00046  -0.00040
1 O 3dyz        -0.00086  -0.00006   0.00031   0.00021   0.00046
1 O 3dz^2       -0.00066   0.00022  -0.00007  -0.00055   0.00032
1 O 3dxz         0.00003  -0.00043   0.00016  -0.00010  -0.00089
1 O 3dx2-y2      0.00051   0.00032  -0.00032   0.00012   0.00026
1 O 4dxy         0.00038  -0.00017  -0.00087  -0.00118  -0.00095
1 O 4dyz        -0.00243  -0.00019   0.00076   0.00053   0.00121
1 O 4dz^2       -0.00268   0.00054  -0.00011  -0.00194   0.00063
1 O 4dxz        -0.00055  -0.00103   0.00063   0.00003  -0.00190
1 O 4dx2-y2      0.00215   0.00108  -0.00123   0.00084   0.00082
1 O 4f-3         0.00024   0.00013  -0.00026   0.00005   0.00015
1 O 4f-2        -0.00013  -0.00017   0.00022   0.00011  -0.00031
1 O 4f-1         0.00007   0.00016  -0.00011  -0.00033   0.00017
1 O 4f+0         0.00040  -0.00003  -0.00007   0.00008  -0.00009
1 O 4f+1        -0.00010   0.00013   0.00000   0.00004   0.00025
1 O 4f+2         0.00014  -0.00009  -0.00007  -0.00015  -0.00025
1 O 4f+3        -0.00006   0.00004   0.00008   0.00023   0.00013
2 C 1s          -0.00026   0.00016   0.00019   0.00043   0.00063
2 C 2s          -0.00604   0.00114   0.00282   0.00505   0.00828
2 C 3s          -0.00887  -0.00152   0.00293   0.00782   0.00371
2 C 2px         -0.01694  -0.00090   0.00509  -0.00310   0.00632
2 C 2py          0.00308  -0.00406  -0.00047  -0.00460  -0.01233
2 C 2pz         -0.00532  -0.00136  -0.00011  -0.00974  -0.00533
2 C 3px         -0.01325   0.00025   0.00116  -0.00447   0.00331
2 C 3py         -0.00036  -0.00383   0.00426  -0.00173  -0.00648
2 C 3pz         -0.00495  -0.00137   0.00268  -0.00530  -0.00321
2 C 3dxy         0.00216   0.00012  -0.00051   0.00116  -0.00065
2 C 3dyz         0.00083  -0.00029   0.00022   0.00137  -0.00009
2 C 3dz^2        0.00093  -0.00129   0.00106   0.00110  -0.00233
2 C 3dxz        -0.00031   0.00106  -0.00090  -0.00030   0.00201
2 C 3dx2-y2     -0.00063  -0.00207   0.00202   0.00038  -0.00321
3 H 1s           0.00137  -0.00462   0.00364   0.00233  -0.00905
3 H 2s           0.00133  -0.00525   0.00394   0.00325  -0.01108
3 H 2px         -0.00050   0.00001   0.00011   0.00003   0.00027
3 H 2py          0.00000  -0.00013  -0.00009  -0.00007  -0.00033
3 H 2pz          0.00000  -0.00010  -0.00004  -0.00026  -0.00025
4 O 1s           0.00022   0.00009   0.00003  -0.00005  -0.00004
4 O 2s          -0.00053  -0.00670   0.00118  -0.00987  -0.02773
4 O 3s          -0.00028  -0.00195   0.00027  -0.00270  -0.00776
4 O 4s          -0.00315  -0.01065   0.00124  -0.01491  -0.04093
4 O 2px          0.00043  -0.00896  -0.00791   0.00495  -0.00377
4 O 2py          0.00061   0.00005  -0.00879   0.01738   0.02885
4 O 2pz         -0.00005  -0.00070   0.00507  -0.00715  -0.02063
4 O 3px          0.00063  -0.01102  -0.00997   0.00635  -0.00389
4 O 3py          0.00049   0.00002  -0.01159   0.02266   0.03699
4 O 3pz         -0.00012  -0.00107   0.00661  -0.00970  -0.02705
4 O 4px         -0.00086  -0.00927  -0.00914   0.00790   0.00137
4 O 4py          0.00415   0.00003  -0.00996   0.02075   0.03479
4 O 4pz         -0.00140  -0.00123   0.00562  -0.00800  -0.02725
4 O 3dxy         0.00002  -0.00043  -0.00020  -0.00017  -0.00087
4 O 3dyz        -0.00002  -0.00005   0.00007  -0.00015  -0.00049
4 O 3dz^2        0.00001  -0.00018  -0.00009  -0.00015  -0.00037
4 O 3dxz        -0.00004   0.00023   0.00006  -0.00004   0.00039
4 O 3dx2-y2     -0.00006   0.00023   0.00030  -0.00043  -0.00026
4 O 4dxy        -0.00005  -0.00071  -0.00026  -0.00082  -0.00174
4 O 4dyz         0.00002   0.00028   0.00036  -0.00022  -0.00057
4 O 4dz^2       -0.00016  -0.00046  -0.00005  -0.00025  -0.00069
4 O 4dxz         0.00005   0.00070  -0.00003   0.00011   0.00129
4 O 4dx2-y2      0.00004   0.00085   0.00124  -0.00147  -0.00085
4 O 4f-3        -0.00003   0.00018   0.00002   0.00014   0.00040
4 O 4f-2         0.00002  -0.00014  -0.00013   0.00006   0.00017
4 O 4f-1         0.00000  -0.00003   0.00003  -0.00011  -0.00029
4 O 4f+0         0.00001   0.00001   0.00003  -0.00005   0.00000
4 O 4f+1        -0.00001   0.00019   0.00008  -0.00001   0.00012
4 O 4f+2         0.00002  -0.00003   0.00009  -0.00015  -0.00038
4 O 4f+3         0.00004  -0.00016  -0.00026   0.00026   0.00024
5 O 1s          -0.00012   0.00022   0.00012  -0.00009  -0.00011
5 O 2s           0.00061   0.00085  -0.00083   0.00145   0.00214
5 O 3s           0.00023   0.00017  -0.00026   0.00043   0.00067
5 O 4s           0.00385  -0.00040  -0.00151   0.00384   0.00082
5 O 2px          0.00010  -0.00034  -0.00188   0.00123   0.00207
5 O 2py         -0.00133   0.00079   0.00135  -0.00054   0.00196
5 O 2pz          0.00069   0.00183   0.00169  -0.00267  -0.00265
5 O 3px          0.00031  -0.00033  -0.00215   0.00115   0.00225
5 O 3py         -0.00168   0.00098   0.00178  -0.00125   0.00193
5 O 3pz          0.00059   0.00225   0.00195  -0.00301  -0.00285
5 O 4px          0.00047  -0.00040  -0.00352   0.00263   0.00233
5 O 4py         -0.00212   0.00113   0.00134   0.00048   0.00398
5 O 4pz          0.00226   0.00320   0.00278  -0.00403  -0.00435
5 O 3dxy        -0.00000  -0.00003  -0.00005   0.00002   0.00001
5 O 3dyz         0.00002   0.00005  -0.00001   0.00002   0.00007
5 O 3dz^2       -0.00002  -0.00003  -0.00001  -0.00002   0.00001
5 O 3dxz         0.00001  -0.00001   0.00001   0.00006   0.00002
5 O 3dx2-y2      0.00000   0.00005   0.00001  -0.00003   0.00002
5 O 4dxy         0.00002  -0.00003   0.00018  -0.00010  -0.00051
5 O 4dyz         0.00016   0.00024   0.00004   0.00018   0.00053
5 O 4dz^2        0.00004   0.00011   0.00009  -0.00032  -0.00031
5 O 4dxz         0.00002   0.00007   0.00005  -0.00004   0.00017
5 O 4dx2-y2      0.00029   0.00021  -0.00016   0.00035   0.00050
5 O 4f-3        -0.00002  -0.00002   0.00000  -0.00003  -0.00008
5 O 4f-2         0.00002   0.00006   0.00001   0.00001   0.00008
5 O 4f-1        -0.00000  -0.00002  -0.00000   0.00000  -0.00001
5 O 4f+0         0.00001   0.00000  -0.00003   0.00004   0.00004
5 O 4f+1        -0.00001  -0.00004   0.00001  -0.00004  -0.00008
5 O 4f+2         0.00001   0.00002   0.00006  -0.00002  -0.00005
5 O 4f+3         0.00002   0.00003  -0.00004   0.00005   0.00012
6 C 1s           0.00007   0.00040  -0.00018  -0.00007   0.00047
6 C 2s           0.00003   0.00564   0.00180   0.00107   0.00910
6 C 3s          -0.00350   0.00243   0.00522  -0.00037   0.00646
6 C 2px          0.00050   0.00613   0.00144   0.00606   0.01614
6 C 2py          0.00047  -0.00758  -0.00364   0.00095  -0.01149
6 C 2pz          0.00020   0.00024  -0.00113   0.00415   0.00229
6 C 3px         -0.00106   0.00010  -0.00288   0.00448   0.00529
6 C 3py          0.00245  -0.00206  -0.00222  -0.00218  -0.00997
6 C 3pz         -0.00075  -0.00010   0.00041   0.00324   0.00527
6 C 3dxy         0.00034  -0.00103  -0.00112   0.00100  -0.00033
6 C 3dyz        -0.00012   0.00055  -0.00053   0.00065   0.00259
6 C 3dz^2        0.00020  -0.00023   0.00016  -0.00072  -0.00160
6 C 3dxz         0.00016  -0.00002   0.00072  -0.00086  -0.00251
6 C 3dx2-y2     -0.00021  -0.00016  -0.00180   0.00287   0.00509
7 H 1s           0.00029  -0.00122   0.00273  -0.00635  -0.01375
7 H 2s          -0.00125  -0.00024   0.00385  -0.00472  -0.00935
7 H 2px          0.00011   0.00018   0.00014   0.00004   0.00029
7 H 2py          0.00003  -0.00019  -0.00005   0.00018  -0.00009
7 H 2pz         -0.00005  -0.00001  -0.00005   0.00002  -0.00005
8 O 1s          -0.00007  -0.00036  -0.00009  -0.00021  -0.00002
8 O 2s          -0.00875  -0.00730  -0.01638   0.00101   0.02272
8 O 3s          -0.00264  -0.00191  -0.00480   0.00036   0.00661
8 O 4s          -0.02112  -0.01042  -0.02685   0.00133   0.03610
8 O 2px          0.00509   0.00621   0.00927   0.00675  -0.00991
8 O 2py          0.00903  -0.01115   0.00373  -0.00235   0.01698
8 O 2pz         -0.00535   0.00966   0.00769  -0.00815  -0.01252
8 O 3px          0.00598   0.00835   0.01164   0.00818  -0.01336
8 O 3py          0.01032  -0.01453   0.00371  -0.00280   0.02275
8 O 3pz         -0.00595   0.01295   0.01018  -0.01048  -0.01702
8 O 4px          0.00477   0.00780   0.01097   0.00728  -0.01380
8 O 4py          0.01316  -0.01561   0.00285  -0.00446   0.02405
8 O 4pz         -0.01099   0.01133   0.01078  -0.01234  -0.01750
8 O 3dxy         0.00032  -0.00056   0.00024  -0.00028   0.00050
8 O 3dyz         0.00043  -0.00028   0.00009  -0.00007   0.00035
8 O 3dz^2       -0.00048   0.00002  -0.00015  -0.00065   0.00005
8 O 3dxz         0.00047   0.00024   0.00072  -0.00044  -0.00071
8 O 3dx2-y2      0.00097   0.00017   0.00074   0.00034  -0.00036
8 O 4dxy         0.00041  -0.00184   0.00065  -0.00087   0.00245
8 O 4dyz         0.00192  -0.00109   0.00035  -0.00018   0.00079
8 O 4dz^2       -0.00094   0.00026  -0.00007  -0.00265  -0.00020
8 O 4dxz         0.00101   0.00069   0.00188  -0.00202  -0.00245
8 O 4dx2-y2      0.00253   0.00068   0.00199   0.00108  -0.00137
8 O 4f-3         0.00054   0.00007   0.00028   0.00021   0.00005
8 O 4f-2         0.00010   0.00026   0.00029  -0.00015  -0.00042
8 O 4f-1        -0.00028   0.00017   0.00010  -0.00033  -0.00024
8 O 4f+0        -0.00001   0.00004  -0.00003   0.00023  -0.00014
8 O 4f+1        -0.00026  -0.00001  -0.00015   0.00006   0.00002
8 O 4f+2        -0.00053   0.00019  -0.00004  -0.00009  -0.00022
8 O 4f+3        -0.00015   0.00032  -0.00003   0.00016  -0.00055
9 O 1s          -0.00012   0.00022  -0.00012  -0.00009   0.00011
9 O 2s           0.00061   0.00085   0.00083   0.00145  -0.00214
9 O 3s           0.00023   0.00017   0.00026   0.00043  -0.00067
9 O 4s           0.00385  -0.00040   0.00151   0.00384  -0.00082
9 O 2px         -0.00014  -0.00080   0.00222   0.00189  -0.00279
9 O 2py         -0.00109   0.00125  -0.00169  -0.00120  -0.00124
9 O 2pz         -0.00103  -0.00138   0.00068   0.00198  -0.00242
9 O 3px          0.00007  -0.00089   0.00253   0.00188  -0.00301
9 O 3py         -0.00145   0.00154  -0.00216  -0.00198  -0.00116
9 O 3pz         -0.00109  -0.00171   0.00073   0.00212  -0.00254
9 O 4px         -0.00024  -0.00121   0.00409   0.00364  -0.00358
9 O 4py         -0.00141   0.00194  -0.00191  -0.00053  -0.00274
9 O 4pz         -0.00279  -0.00253   0.00124   0.00313  -0.00446
9 O 3dxy        -0.00000  -0.00003   0.00004   0.00003   0.00001
9 O 3dyz        -0.00001  -0.00003  -0.00002  -0.00001   0.00008
9 O 3dz^2       -0.00001  -0.00004  -0.00001  -0.00001   0.00001
9 O 3dxz        -0.00002  -0.00003   0.00002  -0.00004   0.00002
9 O 3dx2-y2     -0.00001   0.00003  -0.00001  -0.00005   0.00001
9 O 4dxy        -0.00002  -0.00009  -0.00016  -0.00011   0.00052
9 O 4dyz        -0.00024  -0.00030   0.00008  -0.00008   0.00032
9 O 4dz^2       -0.00003   0.00001  -0.00006  -0.00033   0.00033
9 O 4dxz        -0.00008  -0.00010  -0.00008  -0.00025   0.00059
9 O 4dx2-y2      0.00022   0.00011   0.00018   0.00028  -0.00027
9 O 4f-3        -0.00002  -0.00002  -0.00001  -0.00003   0.00010
9 O 4f-2        -0.00000  -0.00004   0.00000   0.00001   0.00004
9 O 4f-1         0.00002   0.00001  -0.00001   0.00002  -0.00003
9 O 4f+0         0.00000   0.00002  -0.00001   0.00000  -0.00004
9 O 4f+1        -0.00001  -0.00003  -0.00004  -0.00006   0.00011
9 O 4f+2        -0.00003  -0.00005   0.00003  -0.00002   0.00006
9 O 4f+3         0.00001  -0.00000   0.00006   0.00005  -0.00010
10 O 1s          0.00022   0.00009  -0.00003  -0.00005   0.00004
10 O 2s         -0.00053  -0.00670  -0.00118  -0.00987   0.02773
10 O 3s         -0.00028  -0.00195  -0.00027  -0.00270   0.00776
10 O 4s         -0.00315  -0.01065  -0.00125  -0.01492   0.04092
10 O 2px         0.00045  -0.00842   0.00933   0.00738  -0.00311
10 O 2py         0.00059  -0.00049   0.00738   0.01495  -0.02196
10 O 2pz         0.00009   0.00310   0.00492   0.00998  -0.02792
10 O 3px         0.00065  -0.01030   0.01184   0.00962  -0.00506
10 O 3py         0.00046  -0.00070   0.00973   0.01938  -0.02803
10 O 3pz         0.00007   0.00400   0.00655   0.01340  -0.03610
10 O 4px        -0.00028  -0.00858   0.01070   0.01057  -0.01009
10 O 4py         0.00357  -0.00066   0.00840   0.01807  -0.02607
10 O 4pz         0.00266   0.00367   0.00542   0.01088  -0.03425
10 O 3dxy        0.00001  -0.00031   0.00018  -0.00011   0.00054
10 O 3dyz        0.00003   0.00014   0.00006   0.00035  -0.00081
10 O 3dz^2      -0.00000   0.00004   0.00005  -0.00005  -0.00021
10 O 3dxz        0.00006  -0.00043   0.00023   0.00006   0.00057
10 O 3dx2-y2    -0.00004   0.00017  -0.00024  -0.00035   0.00021
10 O 4dxy       -0.00001  -0.00049   0.00033  -0.00065   0.00105
10 O 4dyz        0.00005  -0.00015   0.00054   0.00088  -0.00129
10 O 4dz^2      -0.00010  -0.00008   0.00018   0.00005  -0.00050
10 O 4dxz       -0.00013  -0.00121   0.00044   0.00002   0.00149
10 O 4dx2-y2     0.00002   0.00052  -0.00105  -0.00133   0.00098
10 O 4f-3       -0.00002   0.00017  -0.00008   0.00005  -0.00017
10 O 4f-2       -0.00001   0.00002  -0.00016  -0.00021   0.00045
10 O 4f-1        0.00003  -0.00006  -0.00001  -0.00010   0.00021
10 O 4f+0        0.00001  -0.00016   0.00008   0.00000   0.00016
10 O 4f+1       -0.00000   0.00011  -0.00011  -0.00010   0.00025
10 O 4f+2       -0.00004   0.00019  -0.00007   0.00002  -0.00025
10 O 4f+3        0.00003  -0.00010   0.00021   0.00024  -0.00024
11 C 1s          0.00007   0.00040   0.00018  -0.00007  -0.00047
11 C 2s          0.00003   0.00564  -0.00180   0.00107  -0.00910
11 C 3s         -0.00350   0.00243  -0.00522  -0.00037  -0.00646
11 C 2px         0.00044   0.00554  -0.00155   0.00473  -0.01445
11 C 2py         0.00052  -0.00698   0.00375   0.00227   0.00980
11 C 2pz        -0.00019  -0.00396   0.00034  -0.00523   0.00964
11 C 3px        -0.00072   0.00004   0.00296   0.00334  -0.00326
11 C 3py         0.00211  -0.00201   0.00213  -0.00104   0.00794
11 C 3pz         0.00164  -0.00050   0.00020  -0.00481   0.00902
11 C 3dxy        0.00036  -0.00106   0.00075   0.00064   0.00138
11 C 3dyz       -0.00003  -0.00004  -0.00106  -0.00115   0.00243
11 C 3dz^2       0.00023  -0.00029  -0.00081  -0.00134   0.00342
11 C 3dxz        0.00011  -0.00036   0.00025  -0.00022   0.00041
11 C 3dx2-y2    -0.00020  -0.00029   0.00172   0.00271  -0.00468
12 H 1s          0.00029  -0.00122  -0.00273  -0.00635   0.01375
12 H 2s         -0.00125  -0.00024  -0.00385  -0.00472   0.00935
12 H 2px         0.00012   0.00017  -0.00015   0.00004  -0.00029
12 H 2py         0.00002  -0.00018   0.00006   0.00019   0.00009
12 H 2pz         0.00002  -0.00009   0.00001   0.00002   0.00006
13 O 1s          0.00030   0.00007  -0.00020   0.00018   0.00007
13 O 2s          0.00692  -0.00837  -0.00319  -0.00197   0.02321
13 O 3s          0.00195  -0.00242  -0.00078  -0.00066   0.00672
13 O 4s          0.01122  -0.01662  -0.00264  -0.00635   0.04024
13 O 2px        -0.00393  -0.01059  -0.00983  -0.00078   0.01873
13 O 2py        -0.00852  -0.00237  -0.00699   0.00408  -0.00358
13 O 2pz         0.00398  -0.00723  -0.00584   0.01133   0.01327
13 O 3px        -0.00434  -0.01392  -0.01274  -0.00101   0.02418
13 O 3py        -0.00968  -0.00297  -0.00851   0.00507  -0.00347
13 O 3pz         0.00490  -0.00956  -0.00751   0.01403   0.01752
13 O 4px        -0.00916  -0.01547  -0.01152  -0.00001   0.02653
13 O 4py        -0.01391  -0.00453  -0.01044   0.00220  -0.00315
13 O 4pz         0.00624  -0.01096  -0.00734   0.01575   0.02003
13 O 3dxy        0.00053  -0.00014   0.00024  -0.00043   0.00075
13 O 3dyz        0.00078  -0.00008   0.00009   0.00016   0.00039
13 O 3dz^2      -0.00016   0.00002   0.00009  -0.00050   0.00028
13 O 3dxz       -0.00029   0.00036   0.00017  -0.00033  -0.00064
13 O 3dx2-y2     0.00070   0.00043   0.00042   0.00008  -0.00036
13 O 4dxy        0.00117  -0.00044   0.00082  -0.00097   0.00175
13 O 4dyz        0.00252  -0.00022   0.00009   0.00048   0.00103
13 O 4dz^2      -0.00131   0.00007   0.00003  -0.00157   0.00074
13 O 4dxz       -0.00095   0.00076   0.00053  -0.00145  -0.00123
13 O 4dx2-y2     0.00279   0.00133   0.00151   0.00062  -0.00094
13 O 4f-3        0.00032   0.00012   0.00032  -0.00004  -0.00011
13 O 4f-2        0.00020   0.00007   0.00016  -0.00026  -0.00009
13 O 4f-1        0.00024   0.00002   0.00005  -0.00014   0.00008
13 O 4f+0       -0.00016  -0.00001  -0.00004  -0.00021   0.00006
13 O 4f+1       -0.00020   0.00013   0.00004  -0.00019  -0.00022
13 O 4f+2       -0.00002   0.00021   0.00010  -0.00007  -0.00035
13 O 4f+3       -0.00003   0.00014  -0.00001   0.00018  -0.00031
14 O 1s         -0.00011  -0.00020  -0.00014   0.00030   0.00025
14 O 2s          0.00161   0.00115   0.00069   0.00177  -0.00119
14 O 3s          0.00057   0.00042   0.00028   0.00042  -0.00044
14 O 4s          0.00479   0.00435   0.00128  -0.00250  -0.00418
14 O 2px         0.00401  -0.00035  -0.00060   0.00597   0.00100
14 O 2py         0.00123  -0.00115  -0.00139   0.00102   0.00143
14 O 2pz        -0.00316  -0.00148  -0.00210   0.00082   0.00149
14 O 3px         0.00471  -0.00018  -0.00083   0.00717   0.00084
14 O 3py         0.00138  -0.00118  -0.00135   0.00096   0.00159
14 O 3pz        -0.00405  -0.00168  -0.00221   0.00091   0.00160
14 O 4px         0.00652  -0.00100  -0.00114   0.00720   0.00248
14 O 4py         0.00140  -0.00295  -0.00318   0.00244   0.00270
14 O 4pz        -0.00582  -0.00273  -0.00499   0.00030   0.00298
14 O 3dxy        0.00009   0.00002   0.00004   0.00002  -0.00000
14 O 3dyz       -0.00008  -0.00004  -0.00003  -0.00001   0.00003
14 O 3dz^2      -0.00008   0.00001   0.00001  -0.00008  -0.00001
14 O 3dxz        0.00003  -0.00001   0.00002  -0.00003   0.00006
14 O 3dx2-y2     0.00003   0.00001   0.00004  -0.00008   0.00000
14 O 4dxy        0.00027  -0.00018   0.00007  -0.00011   0.00033
14 O 4dyz       -0.00006  -0.00006   0.00003  -0.00008   0.00013
14 O 4dz^2      -0.00014  -0.00020  -0.00011  -0.00005   0.00022
14 O 4dxz       -0.00010  -0.00013  -0.00010  -0.00040   0.00033
14 O 4dx2-y2    -0.00023  -0.00008  -0.00011  -0.00031   0.00033
14 O 4f-3        0.00002   0.00003   0.00003   0.00005  -0.00008
14 O 4f-2       -0.00004   0.00000  -0.00003   0.00010  -0.00006
14 O 4f-1        0.00001   0.00002   0.00001   0.00006  -0.00005
14 O 4f+0        0.00001   0.00001   0.00004  -0.00001  -0.00001
14 O 4f+1       -0.00003  -0.00001  -0.00002   0.00002  -0.00001
14 O 4f+2       -0.00002   0.00003   0.00003  -0.00005  -0.00004
14 O 4f+3        0.00002   0.00000   0.00002  -0.00005   0.00005
15 C 1s         -0.00026   0.00016  -0.00019   0.00043  -0.00063
15 C 2s         -0.00604   0.00114  -0.00282   0.00506  -0.00828
15 C 3s         -0.00887  -0.00152  -0.00292   0.00782  -0.00371
15 C 2px        -0.01472  -0.00065  -0.00490  -0.00049  -0.00705
15 C 2py         0.00086  -0.00431   0.00028  -0.00720   0.01307
15 C 2pz         0.01037   0.00039   0.00142   0.00858   0.00016
15 C 3px        -0.01141   0.00047  -0.00055  -0.00291  -0.00381
15 C 3py        -0.00222  -0.00405  -0.00487  -0.00328   0.00697
15 C 3pz         0.00808   0.00015   0.00163   0.00564  -0.00029
15 C 3dxy        0.00159   0.00062   0.00089   0.00051  -0.00023
15 C 3dyz       -0.00141   0.00121   0.00096  -0.00196  -0.00191
15 C 3dz^2      -0.00006  -0.00044  -0.00040  -0.00002   0.00081
15 C 3dxz        0.00128  -0.00080  -0.00049   0.00076   0.00192
15 C 3dx2-y2    -0.00072  -0.00212  -0.00205   0.00006   0.00348
16 H 1s          0.00137  -0.00462  -0.00364   0.00233   0.00905
16 H 2s          0.00133  -0.00525  -0.00394   0.00325   0.01109
16 H 2px        -0.00048   0.00003  -0.00012   0.00010  -0.00031
16 H 2py        -0.00002  -0.00015   0.00010  -0.00014   0.00038
16 H 2pz         0.00014   0.00005   0.00002   0.00022  -0.00007
17 Fe 1s         0.00005  -0.00017   0.00000   0.00065  -0.00000
17 Fe 2s         0.00021  -0.00050   0.00000   0.00191  -0.00000
17 Fe 3s        -0.03035  -0.00163   0.00000   0.00888  -0.00000
17 Fe 4s        -0.02067  -0.04408   0.00001   0.02920   0.00000
17 Fe 5s        -0.01002  -0.00496  -0.00000  -0.00494   0.00000
17 Fe 6s         0.00437   0.00009   0.00000   0.00428  -0.00000
17 Fe 7s        -0.03699  -0.00349  -0.00000  -0.02560  -0.00000
17 Fe 2px       -0.00096  -0.00022   0.00002  -0.00004  -0.00000
17 Fe 2py        0.00022  -0.00060  -0.00002   0.00030   0.00000
17 Fe 2pz        0.00017  -0.00005   0.00012   0.00005  -0.00002
17 Fe 3px       -0.02686  -0.00594   0.00030  -0.00093  -0.00008
17 Fe 3py       -0.00130  -0.01647  -0.00030   0.00343   0.00008
17 Fe 3pz        0.00362  -0.00149   0.00212   0.00062  -0.00053
17 Fe 4px       -0.09678  -0.02978   0.00047  -0.00064   0.00049
17 Fe 4py        0.06834  -0.01615  -0.00046   0.07123  -0.00049
17 Fe 4pz        0.02342   0.00193   0.00332   0.01019   0.00344
17 Fe 5px        0.06165   0.03544  -0.00062   0.00022  -0.00003
17 Fe 5py       -0.06251   0.06055   0.00060  -0.05925   0.00003
17 Fe 5pz       -0.01761   0.00356  -0.00435  -0.00843  -0.00019
17 Fe 6px       -0.00014   0.00024   0.00005  -0.00058   0.00004
17 Fe 6py        0.00248   0.00300  -0.00005   0.00188  -0.00004
17 Fe 6pz        0.00037   0.00039   0.00033   0.00035   0.00026
17 Fe 7px       -0.03373  -0.00204  -0.00114   0.00019  -0.00071
17 Fe 7py       -0.00825  -0.00780   0.00114  -0.01110   0.00071
17 Fe 7pz        0.00361  -0.00082  -0.00806  -0.00160  -0.00501
17 Fe 3dxy      -0.68984  -0.27921  -0.09610   0.36743   0.08449
17 Fe 3dyz       0.07251  -0.11413  -0.64335  -0.16264  -0.03618
17 Fe 3dz^2      0.42513   0.31778  -0.16651   0.48590   0.14634
17 Fe 3dxz       0.08624  -0.03394   0.00762   0.19455  -0.60787
17 Fe 3dx2-y2   -0.55969   0.52200  -0.09020  -0.11195  -0.09133
17 Fe 4dxy      -0.01022   0.00938   0.00479  -0.01208  -0.00550
17 Fe 4dyz       0.00066   0.00501   0.02556   0.00620  -0.00517
17 Fe 4dz^2      0.00782  -0.01444   0.00830  -0.01854  -0.00952
17 Fe 4dxz       0.00164   0.00039  -0.00689  -0.00685   0.03202
17 Fe 4dx2-y2   -0.00814  -0.01906   0.00265   0.00227   0.00381
17 Fe 5dxy      -0.00656   0.00117   0.00089  -0.00191  -0.00100
17 Fe 5dyz       0.00051   0.00095   0.00457   0.00111  -0.00137
17 Fe 5dz^2      0.00470  -0.00269   0.00154  -0.00325  -0.00174
17 Fe 5dxz       0.00098  -0.00008  -0.00143  -0.00112   0.00543
17 Fe 5dx2-y2   -0.00527  -0.00308   0.00044   0.00003   0.00058
17 Fe 6dxy      -0.05456  -0.01162  -0.00093   0.01235   0.00006
17 Fe 6dyz       0.00721  -0.00407  -0.01631  -0.00309  -0.00676
17 Fe 6dz^2      0.02575   0.01319  -0.00161   0.01063   0.00011
17 Fe 6dxz       0.00426  -0.00075  -0.01003   0.00600  -0.00717
17 Fe 6dx2-y2   -0.04043   0.01696  -0.00374  -0.01024  -0.00198
17 Fe 4f-3       0.00024  -0.00005   0.00002   0.00009   0.00003
17 Fe 4f-2       0.00002  -0.00000  -0.00002  -0.00006   0.00020
17 Fe 4f-1      -0.00010  -0.00021   0.00006  -0.00018  -0.00005
17 Fe 4f+0       0.00001  -0.00005  -0.00006  -0.00006  -0.00000
17 Fe 4f+1      -0.00012  -0.00008   0.00001  -0.00003   0.00005
17 Fe 4f+2       0.00006  -0.00006  -0.00015  -0.00004   0.00001
17 Fe 4f+3      -0.00035  -0.00012  -0.00003   0.00005   0.00004
17 Fe 5f-3       0.00068  -0.00245   0.00036   0.00049   0.00016
17 Fe 5f-2       0.00037   0.00037   0.00065  -0.00023   0.00009
17 Fe 5f-1      -0.00024  -0.00193   0.00055  -0.00059   0.00007
17 Fe 5f+0       0.00003  -0.00045  -0.00102  -0.00024   0.00023
17 Fe 5f+1      -0.00028  -0.00066   0.00009   0.00002   0.00029
17 Fe 5f+2       0.00049  -0.00081  -0.00137  -0.00003  -0.00077
17 Fe 5f+3      -0.00268  -0.00135  -0.00014  -0.00007  -0.00012
17 Fe 5g-4       0.00136  -0.00011   0.00018   0.00010   0.00009
17 Fe 5g-3      -0.00028   0.00010   0.00080  -0.00000   0.00109
17 Fe 5g-2      -0.00079  -0.00067  -0.00026   0.00011  -0.00013
17 Fe 5g-1       0.00013  -0.00016  -0.00068  -0.00014  -0.00056
17 Fe 5g+0       0.00072   0.00049  -0.00010   0.00052   0.00048
17 Fe 5g+1       0.00031  -0.00009  -0.00053   0.00050  -0.00152
17 Fe 5g+2      -0.00072   0.00038  -0.00012  -0.00054  -0.00054
17 Fe 5g+3      -0.00013   0.00029  -0.00013  -0.00029   0.00057
17 Fe 5g+4      -0.00004  -0.00178   0.00015   0.00091   0.00034
18 O 1s         -0.00007  -0.00036   0.00009  -0.00021   0.00002
18 O 2s         -0.00875  -0.00730   0.01638   0.00101  -0.02272
18 O 3s         -0.00264  -0.00191   0.00480   0.00035  -0.00661
18 O 4s         -0.02112  -0.01042   0.02685   0.00133  -0.03610
18 O 2px         0.00670   0.00290  -0.00696   0.00862   0.00546
18 O 2py         0.00742  -0.00785  -0.00604  -0.00421  -0.01252
18 O 2pz         0.00601  -0.01365   0.00861   0.00504  -0.01888
18 O 3px         0.00777   0.00393  -0.00856   0.01061   0.00733
18 O 3py         0.00853  -0.01012  -0.00679  -0.00523  -0.01671
18 O 3pz         0.00668  -0.01819   0.01156   0.00668  -0.02555
18 O 4px         0.00809   0.00381  -0.00772   0.01019   0.00756
18 O 4py         0.00984  -0.01162  -0.00611  -0.00737  -0.01782
18 O 4pz         0.01243  -0.01683   0.01216   0.00819  -0.02647
18 O 3dxy        0.00036  -0.00039  -0.00040  -0.00027  -0.00019
18 O 3dyz       -0.00053   0.00029   0.00035   0.00036   0.00025
18 O 3dz^2      -0.00040   0.00032  -0.00013  -0.00063   0.00048
18 O 3dxz       -0.00082  -0.00035   0.00080  -0.00008  -0.00078
18 O 3dx2-y2     0.00065   0.00017  -0.00046   0.00046   0.00023
18 O 4dxy        0.00027  -0.00129  -0.00100  -0.00093  -0.00148
18 O 4dyz       -0.00205   0.00097   0.00117   0.00144   0.00052
18 O 4dz^2      -0.00118   0.00122  -0.00053  -0.00275   0.00188
18 O 4dxz       -0.00203  -0.00098   0.00198  -0.00001  -0.00280
18 O 4dx2-y2     0.00153   0.00074  -0.00122   0.00159   0.00081
18 O 4f-3        0.00032   0.00004  -0.00016   0.00020  -0.00010
18 O 4f-2       -0.00020  -0.00023   0.00021  -0.00008  -0.00034
18 O 4f-1       -0.00043   0.00033  -0.00009  -0.00013   0.00052
18 O 4f+0        0.00003   0.00015  -0.00023  -0.00037   0.00019
18 O 4f+1       -0.00053  -0.00002   0.00021  -0.00017  -0.00008
18 O 4f+2        0.00036  -0.00015  -0.00011  -0.00003  -0.00025
18 O 4f+3       -0.00004   0.00017   0.00009   0.00018   0.00033
19 Fe 1s         0.00009   0.00021  -0.00000  -0.00085  -0.00000
19 Fe 2s         0.00026   0.00062  -0.00000  -0.00251  -0.00000
19 Fe 3s         0.00161   0.00178  -0.00000  -0.01283   0.00000
19 Fe 4s         0.01784   0.01748  -0.00001  -0.04417  -0.00000
19 Fe 5s         0.00228   0.00318  -0.00000   0.00017  -0.00000
19 Fe 6s         0.00105   0.00155  -0.00000  -0.00152   0.00000
19 Fe 7s         0.03502  -0.00312   0.00000   0.01210   0.00000
19 Fe 2px        0.00003   0.00012  -0.00002   0.00139   0.00001
19 Fe 2py        0.00008   0.00002   0.00002   0.00027  -0.00001
19 Fe 2pz        0.00001  -0.00001  -0.00012  -0.00016   0.00010
19 Fe 3px       -0.00006   0.00488  -0.00003   0.03434   0.00052
19 Fe 3py       -0.00000  -0.00086   0.00004   0.00663  -0.00052
19 Fe 3pz        0.00001  -0.00081  -0.00029  -0.00393   0.00369
19 Fe 4px       -0.03610   0.00248  -0.00085   0.12224   0.00049
19 Fe 4py        0.02620  -0.01884   0.00087   0.03746  -0.00048
19 Fe 4pz        0.00884  -0.00302  -0.00612  -0.01202   0.00342
19 Fe 5px        0.02876  -0.01180   0.00029  -0.15329  -0.00184
19 Fe 5py       -0.01270   0.00785  -0.00032  -0.04024   0.00183
19 Fe 5pz       -0.00588   0.00278   0.00225   0.01603  -0.01295
19 Fe 6px       -0.00166  -0.00157  -0.00020  -0.00594  -0.00015
19 Fe 6py       -0.00055   0.00154   0.00019  -0.00100   0.00015
19 Fe 6pz        0.00016   0.00044  -0.00137   0.00070  -0.00109
19 Fe 7px       -0.01136   0.00286   0.00083   0.00201   0.00057
19 Fe 7py       -0.01559  -0.00522  -0.00083  -0.00123  -0.00057
19 Fe 7pz       -0.00060  -0.00115   0.00586  -0.00046   0.00400
19 Fe 3dxy      -0.00227   0.58073   0.09558  -0.31531  -0.09843
19 Fe 3dyz      -0.00348  -0.04571  -0.02262  -0.02142  -0.69825
19 Fe 3dz^2     -0.00758   0.04229   0.16576   0.47549  -0.17044
19 Fe 3dxz      -0.00803   0.14753  -0.66993   0.12888  -0.03215
19 Fe 3dx2-y2    0.04056  -0.35904  -0.09827  -0.37834  -0.10359
19 Fe 4dxy      -0.00278  -0.06055  -0.01173   0.03785   0.01452
19 Fe 4dyz      -0.00019   0.00490  -0.00368   0.00204   0.09560
19 Fe 4dz^2      0.00241  -0.00602  -0.02034  -0.05661   0.02514
19 Fe 4dxz       0.00021  -0.01607   0.07577  -0.01576  -0.00265
19 Fe 4dx2-y2   -0.00007   0.03937   0.01023   0.04829   0.01318
19 Fe 5dxy      -0.00095  -0.01222  -0.00229   0.00729   0.00289
19 Fe 5dyz      -0.00008   0.00097  -0.00070   0.00044   0.01901
19 Fe 5dz^2      0.00091  -0.00101  -0.00396  -0.01078   0.00501
19 Fe 5dxz       0.00010  -0.00316   0.01478  -0.00293  -0.00058
19 Fe 5dx2-y2   -0.00007   0.00773   0.00200   0.00876   0.00261
19 Fe 6dxy      -0.00200   0.00793   0.00116  -0.00479   0.00207
19 Fe 6dyz      -0.00065  -0.00087   0.00078  -0.00118   0.00926
19 Fe 6dz^2      0.00216   0.00134   0.00201   0.01050   0.00359
19 Fe 6dxz      -0.00013   0.00216  -0.00706   0.00279  -0.00477
19 Fe 6dx2-y2    0.00273  -0.00456  -0.00089  -0.00567   0.00064
19 Fe 4f-3      -0.00004   0.00021   0.00004  -0.00029  -0.00010
19 Fe 4f-2      -0.00000  -0.00002  -0.00011   0.00002  -0.00042
19 Fe 4f-1      -0.00001  -0.00011   0.00003   0.00011   0.00004
19 Fe 4f+0      -0.00003  -0.00006   0.00020  -0.00011   0.00010
19 Fe 4f+1       0.00006   0.00005   0.00012   0.00041  -0.00010
19 Fe 4f+2       0.00001   0.00009  -0.00032   0.00011   0.00011
19 Fe 4f+3      -0.00006  -0.00035  -0.00008  -0.00022  -0.00006
19 Fe 5f-3      -0.00021   0.00206   0.00019  -0.00380  -0.00021
19 Fe 5f-2       0.00017  -0.00015  -0.00221   0.00063  -0.00131
19 Fe 5f-1      -0.00068  -0.00073   0.00035   0.00160   0.00011
19 Fe 5f+0      -0.00022  -0.00058   0.00245  -0.00102   0.00065
19 Fe 5f+1      -0.00005   0.00080   0.00112   0.00441  -0.00006
19 Fe 5f+2       0.00008   0.00100  -0.00314   0.00137  -0.00011
19 Fe 5f+3      -0.00158  -0.00339  -0.00095  -0.00361  -0.00025
19 Fe 5g-4       0.00010  -0.00011  -0.00001  -0.00002  -0.00013
19 Fe 5g-3      -0.00002   0.00002  -0.00013  -0.00001  -0.00021
19 Fe 5g-2       0.00001  -0.00010   0.00006   0.00018  -0.00001
19 Fe 5g-1       0.00002  -0.00001   0.00001  -0.00014   0.00017
19 Fe 5g+0      -0.00001   0.00005   0.00000   0.00011   0.00006
19 Fe 5g+1       0.00002  -0.00002   0.00002   0.00011   0.00005
19 Fe 5g+2      -0.00006   0.00005  -0.00001   0.00005  -0.00012
19 Fe 5g+3      -0.00001  -0.00000  -0.00008   0.00002   0.00042
19 Fe 5g+4       0.00008  -0.00016  -0.00005   0.00026   0.00004
20 O 1s         -0.00008  -0.00014   0.00004  -0.00005  -0.00033
20 O 2s          0.00084   0.00820  -0.01682  -0.01039   0.02521
20 O 3s          0.00022   0.00242  -0.00481  -0.00279   0.00715
20 O 4s          0.00096   0.01466  -0.02574  -0.01627   0.04068
20 O 2px        -0.00327   0.00940  -0.00542   0.01091  -0.01756
20 O 2py         0.00069  -0.00001  -0.00914  -0.00671   0.01107
20 O 2pz         0.00477   0.00165  -0.01247  -0.01591   0.03147
20 O 3px        -0.00425   0.01156  -0.00585   0.01460  -0.02309
20 O 3py         0.00127   0.00007  -0.01105  -0.00893   0.01445
20 O 3pz         0.00623   0.00264  -0.01634  -0.02091   0.04161
20 O 4px        -0.00371   0.01066  -0.00593   0.01395  -0.02626
20 O 4py         0.00255  -0.00298  -0.01181  -0.00479   0.00745
20 O 4pz         0.00926   0.00058  -0.01796  -0.01955   0.03673
20 O 3dxy        0.00016  -0.00042   0.00035  -0.00022  -0.00002
20 O 3dyz        0.00000  -0.00030   0.00068   0.00034  -0.00081
20 O 3dz^2      -0.00023  -0.00004   0.00005  -0.00002  -0.00032
20 O 3dxz        0.00006  -0.00041   0.00031  -0.00023   0.00000
20 O 3dx2-y2    -0.00007   0.00005  -0.00041  -0.00040   0.00036
20 O 4dxy       -0.00012  -0.00075   0.00086  -0.00107   0.00115
20 O 4dyz       -0.00033  -0.00059   0.00128   0.00093  -0.00226
20 O 4dz^2      -0.00006  -0.00014   0.00002  -0.00002  -0.00110
20 O 4dxz       -0.00006  -0.00112   0.00099  -0.00038  -0.00057
20 O 4dx2-y2     0.00015  -0.00033  -0.00076  -0.00136   0.00112
20 O 4f-3       -0.00000   0.00016  -0.00005   0.00026  -0.00033
20 O 4f-2       -0.00001   0.00009  -0.00025  -0.00019   0.00041
20 O 4f-1        0.00018  -0.00012   0.00014   0.00013  -0.00003
20 O 4f+0        0.00001  -0.00017   0.00024   0.00005  -0.00026
20 O 4f+1        0.00011  -0.00013  -0.00006  -0.00018   0.00048
20 O 4f+2       -0.00013   0.00017  -0.00001   0.00012  -0.00029
20 O 4f+3        0.00005  -0.00008   0.00019   0.00009   0.00000
21 O 1s         -0.00008  -0.00014  -0.00004  -0.00005   0.00033
21 O 2s          0.00084   0.00820   0.01682  -0.01039  -0.02521
21 O 3s          0.00022   0.00242   0.00480  -0.00279  -0.00715
21 O 4s          0.00096   0.01466   0.02573  -0.01627  -0.04068
21 O 2px        -0.00441   0.00858   0.00217   0.01457   0.02503
21 O 2py         0.00184   0.00080   0.01240  -0.01037  -0.01855
21 O 2pz        -0.00332  -0.00409  -0.01049   0.00988   0.02123
21 O 3px        -0.00574   0.01040   0.00160   0.01939   0.03298
21 O 3py         0.00275   0.00123   0.01530  -0.01373  -0.02435
[...]
000u0u0u0u : -4.68e-01   000u00uu0u :  5.13e-01   
0000uuu00u :  4.51e-01   000u0u0uu0 : -3.92e-01   
0000uu0uu0 : -3.59e-01   0000u0uuu0 :  2.94e-01   
000u00uuu0 :  3.50e-01   0000uu0u0u : -2.90e-01   
000u0u00uu :  1.02e-01   00u000uuu0 : -2.43e-01   
0u000uu00u :  7.92e-02   00u00u0u0u :  1.48e-01   
00u00u0uu0 : -7.77e-02   0000uuuu00 : -1.23e-01   
00u00uu00u : -7.74e-02   0000uu00uu :  8.20e-02   
0000u0u0uu : -6.15e-02   0000uuu0u0 :  7.45e-02   
Rootspace 17 with averaged weight 2.109e-07
 Frag    Nelec  2S+1   Ir     <n>  Max(weight)   Entropy
    0    2a+3b     6    A   0.130       0.9738  0.118343
    1    4a+2b     7    A   2.697       0.8877  0.119673
Wave function(s) in rootspace 17 in local primitive basis:
   Fac:  4.634e-04  3.546e-04  7.307e-04  1.224e-04  4.064e-04
   0.3: -9.443e-01 -9.430e-01  9.399e-01 -9.345e-01 -9.306e-01
   0.0: -2.724e-01 -2.761e-01  2.846e-01 -2.990e-01 -3.085e-01
   5.0:  1.196e-01  1.200e-01 -1.208e-01  1.222e-01  1.231e-01
   0.2:  8.552e-02  8.748e-02 -9.176e-02  9.862e-02  1.039e-01
   5.3: -7.708e-02 -7.735e-02  7.798e-02 -7.906e-02 -7.968e-02
   5.2:  4.827e-02  4.816e-02 -4.792e-02  4.753e-02  4.722e-02
  0.10: -2.801e-02 -2.803e-02  2.809e-02 -2.817e-02 -2.822e-02
   1.0:  2.650e-02  2.641e-02 -2.620e-02  2.584e-02  2.559e-02
   4.3:  2.007e-02  2.013e-02 -2.027e-02  2.048e-02  2.066e-02
   4.0: -1.711e-02 -1.722e-02  1.747e-02 -1.788e-02 -1.819e-02
  10.0:  1.704e-02  1.714e-02 -1.737e-02  1.774e-02  1.802e-02
   4.2:  1.543e-02  1.549e-02 -1.560e-02  1.579e-02  1.592e-02
  10.3: -1.522e-02 -1.529e-02  1.545e-02 -1.569e-02 -1.587e-02
   0.8:  1.445e-02  1.447e-02 -1.451e-02  1.456e-02  1.460e-02
   9.0: -1.212e-02 -1.207e-02  1.196e-02 -1.177e-02 -1.163e-02
   2.1:  1.178e-02  1.178e-02 -1.178e-02  1.177e-02  1.177e-02
   0.6: -1.087e-02 -1.089e-02  1.092e-02 -1.098e-02 -1.102e-02
   1.3: -1.141e-02 -1.128e-02  1.098e-02 -1.051e-02 -1.014e-02
   9.2:  1.031e-02  1.028e-02 -1.020e-02  1.008e-02  9.993e-03
   3.4: -9.549e-03 -9.560e-03  9.582e-03 -9.611e-03 -9.636e-03
   7.0:  9.242e-03  9.322e-03 -9.501e-03  9.797e-03  1.001e-02
   3.1: -8.262e-03 -8.257e-03  8.247e-03 -8.226e-03 -8.206e-03
   7.2:  7.191e-03  7.153e-03 -7.068e-03  6.929e-03  6.826e-03
   9.3:  6.547e-03  6.535e-03 -6.506e-03  6.453e-03  6.416e-03
   7.3: -4.255e-03 -4.280e-03  4.335e-03 -4.422e-03 -4.492e-03
  10.2:  4.198e-03  4.146e-03 -4.029e-03  3.837e-03  3.700e-03
   8.4:  3.269e-03  3.278e-03 -3.298e-03  3.331e-03  3.354e-03
   1.2:  2.324e-03  2.313e-03 -2.292e-03  2.262e-03  2.233e-03
   6.1:  2.261e-03  2.262e-03 -2.266e-03  2.271e-03  2.271e-03
  5.10: -1.819e-03 -1.819e-03  1.818e-03 -1.817e-03 -1.813e-03
   2.4: -1.173e-03 -1.187e-03  1.218e-03 -1.268e-03 -1.306e-03
   8.1: -8.266e-04 -8.339e-04  8.495e-04 -8.755e-04 -8.957e-04
   5.8:  5.028e-04  5.031e-04 -5.039e-04  5.061e-04  5.061e-04
  9.10: -5.002e-04 -5.008e-04  5.021e-04 -5.041e-04 -5.053e-04
 10.10: -4.157e-04 -4.162e-04  4.171e-04 -4.185e-04 -4.194e-04
  7.10: -3.920e-04 -3.925e-04  3.937e-04 -3.953e-04 -3.967e-04
   5.6: -3.439e-04 -3.431e-04  3.416e-04 -3.396e-04 -3.369e-04
  10.8:  1.381e-04  1.382e-04 -1.385e-04  1.388e-04  1.391e-04
   6.4:  1.489e-04  1.463e-04 -1.407e-04  1.311e-04  1.236e-04
  1.10:  1.329e-04  1.314e-04 -1.279e-04  1.219e-04  1.182e-04
   9.8:  1.078e-04  1.080e-04 -1.084e-04  1.091e-04  1.095e-04
   0.4:  1.069e-04  1.071e-04 -1.074e-04  1.078e-04  1.083e-04
   7.8:  1.050e-04  1.052e-04 -1.055e-04  1.061e-04  1.067e-04
   4.8: -9.942e-05 -9.949e-05  9.950e-05 -9.930e-05 -9.969e-05
   9.6: -8.864e-05 -8.859e-05  8.850e-05 -8.835e-05 -8.817e-05
  10.6: -7.321e-05 -7.314e-05  7.299e-05 -7.272e-05 -7.251e-05
   0.1: -7.252e-05 -7.236e-05  7.196e-05 -7.132e-05 -7.080e-05
   7.6: -6.790e-05 -6.789e-05  6.783e-05 -6.769e-05 -6.769e-05
Remaining 73 ENVs in rootspace 17 have combined average weight = 7.038837e-09
Leading 10 CSFs of 11 local primitive basis functions for fragment 0 in rootspace 17:
State 0/11               State 1/11               State 2/11               
00000uuuuu :  9.82e-01   0000u0uuuu : -9.09e-01   0000uuuu0u : -8.48e-01   
0000uuuuu0 : -1.14e-01   0000uuu0uu : -3.73e-01   0000uu0uuu : -4.88e-01   
000u00uuuu : -7.49e-02   00u0u00uuu :  9.11e-02   000uu0uu0u : -8.82e-02   
00u00u0uuu : -7.11e-02   0u00u0u0uu :  8.78e-02   00u0uu0u0u : -8.78e-02   
0u000uu0uu : -6.75e-02   u000u0uu0u :  7.35e-02   0u00uuu00u : -8.72e-02   
u0000uuu0u : -5.76e-02   000u00uuuu : -4.79e-02   0u000uuu0u : -6.37e-02   
uu000uu00u : -2.25e-02   00u0uu00uu : -4.05e-02   0u000u0uuu : -6.35e-02   
0uu00u00uu : -2.17e-02   000uu0u0uu : -3.86e-02   00u000uuuu :  5.20e-02   
000uu0uuu0 :  2.10e-02   00u00uuu0u :  3.76e-02   000uu00uuu : -5.06e-02   
0u0u00u0uu : -1.97e-02   00u00u0uuu :  3.63e-02   0u00uu00uu :  4.63e-02   
State 3/11               State 4/11               State 5/11               
0000uu0uuu : -8.49e-01   0000uuu0uu :  9.02e-01   0000uuuuu0 :  9.07e-01   
0000uuuu0u :  4.89e-01   0000u0uuuu : -3.79e-01   000u00uuuu : -2.98e-01   
0u00uu00uu :  8.62e-02   000uu0u0uu :  9.11e-02   00u00u0uuu : -1.83e-01   
000uu00uuu : -8.62e-02   00u0uu00uu :  9.01e-02   0u000uu0uu : -1.12e-01   
000u0u0uuu : -7.61e-02   u000uuu00u : -7.96e-02   0000uuu0uu :  8.62e-02   
u000uu0u0u :  7.02e-02   0000uuuuu0 : -6.93e-02   0u00uuu0u0 :  7.14e-02   
0u000u0uuu : -6.37e-02   000u00uuuu :  6.06e-02   u000uuuu00 :  6.74e-02   
0u00uuu00u :  5.38e-02   0u000uu0uu :  4.37e-02   00u0uu0uu0 :  6.66e-02   
000uu0uu0u :  4.98e-02   0u00u0u0uu :  3.73e-02   00000uuuuu :  5.71e-02   
00u0uu0u0u :  4.31e-02   00u0u00uuu :  3.45e-02   000uu0uuu0 :  5.51e-02   
State 6/11               State 7/11               State 8/11               
000u0uuu0u : -8.02e-01   000u0uu0uu :  6.25e-01   00u00uu0uu : -6.87e-01   
0u000uuu0u :  4.93e-01   000u0uuuu0 : -4.41e-01   00u000uuuu : -6.09e-01   
00u00uu0uu :  1.55e-01   000u00uuuu :  3.72e-01   00u00uuuu0 : -2.04e-01   
00u000uuuu :  1.23e-01   00u00uuu0u : -3.04e-01   000u0uuu0u : -1.90e-01   
00u00uuuu0 : -1.20e-01   0u000uu0uu : -2.86e-01   u0000uu0uu :  1.32e-01   
000u0u0uuu : -1.16e-01   00u00u0uuu : -1.67e-01   000u0u0uuu : -1.11e-01   
000uuuuu00 : -1.14e-01   0u000uuuu0 :  1.36e-01   u00000uuuu :  1.07e-01   
00uu0u0u0u : -7.83e-02   0u0000uuuu : -9.92e-02   00u0uuu0u0 : -9.53e-02   
0u0u0uu00u : -7.73e-02   000uuuu0u0 :  8.72e-02   00u0u0uuu0 : -9.04e-02   
0u00uuuu00 :  7.11e-02   0000uuuuu0 :  7.43e-02   00uu00u0uu :  6.88e-02   
State 9/11               State 10/11              
00u00uuu0u :  5.85e-01   000u0uuuu0 :  5.40e-01   
000u0uuuu0 :  4.76e-01   0u000uu0uu : -4.43e-01   
000u0uu0uu :  3.97e-01   0u0000uuuu : -4.42e-01   
000u00uuuu :  3.39e-01   000u00uuuu :  3.67e-01   
00u00u0uuu : -2.69e-01   00u00uuu0u : -2.81e-01   
0u0000uuuu :  1.82e-01   000u0uu0uu : -2.46e-01   
u0000uuu0u : -9.42e-02   0u00u0uuu0 : -6.61e-02   
00u0uuuu00 :  8.25e-02   000uu0uuu0 :  5.95e-02   
0000uuuuu0 :  6.09e-02   0u00uuu0u0 : -5.73e-02   
0uu00uu00u :  5.65e-02   00u00u0uuu :  5.39e-02   
Leading 10 CSFs of 11 local primitive basis functions for fragment 1 in rootspace 17:
State 0/11               State 1/11               State 2/11               
0000uuuuuu :  9.57e-01   000u0uuuuu :  9.91e-01   00u00uuuuu :  9.59e-01   
00u00uuuuu :  2.49e-01   0u0u0uuu0u : -6.41e-02   0000uuuuuu : -2.50e-01   
000uuu0uuu : -6.19e-02   000uu0uuuu :  6.41e-02   00u0u0uuuu :  6.08e-02   
0u00uuuu0u : -6.18e-02   00uu0uu0uu : -6.18e-02   00uu0u0uuu :  6.01e-02   
00u0uuu0uu : -5.97e-02   u00u0uuuu0 : -5.63e-02   u0u00uuuu0 : -5.96e-02   
0u000uuuuu : -5.94e-02   u0uu0uu0u0 : -2.39e-02   0uu00uuu0u : -5.84e-02   
u000uuuuu0 : -5.41e-02   0u0uu0uu0u :  2.28e-02   0uuu0u0u0u :  2.19e-02   
u0u0uuu0u0 : -2.30e-02   00uuu0u0uu :  2.07e-02   0uu0u0uu0u :  2.18e-02   
0u0uuu0u0u : -2.18e-02   u00uu0uuu0 :  1.95e-02   00uuu00uuu : -2.12e-02   
00uuuu00uu : -1.96e-02   0uuu0uu00u : -1.94e-02   u0uu0u0uu0 :  1.91e-02   
State 3/11               State 4/11               State 5/11               
0u000uuuuu :  9.89e-01   u0000uuuuu :  9.90e-01   00u0uuuuu0 :  9.33e-01   
0u00u0uuuu :  6.59e-02   u0u00uu0uu :  6.86e-02   00uu0uuu0u :  2.97e-01   
0u0u0u0uuu :  6.54e-02   u00u0u0uuu :  6.37e-02   0u00uuuuu0 :  1.30e-01   
0uu00uu0uu :  6.05e-02   u000u0uuuu :  6.36e-02   0uu00uuuu0 :  6.29e-02   
0000uuuuuu :  5.77e-02   uu000uuu0u :  6.08e-02   00uuuu0uu0 : -6.13e-02   
uu000uuuu0 : -5.48e-02   uu00u0uu0u : -2.27e-02   0uu0uuuu00 :  6.05e-02   
uuu00uu0u0 :  2.39e-02   uu0u0u0u0u : -2.25e-02   00u0uu0uuu : -5.92e-02   
0u0uu00uuu : -2.13e-02   u00uu00uuu : -2.14e-02   00uu00uuuu :  5.83e-02   
0uu0u0u0uu : -2.07e-02   u0u0u0u0uu : -2.04e-02   000uuuuu0u : -3.92e-02   
0uuu0u00uu : -2.06e-02   u0uu0u00uu : -2.03e-02   u00u0uuuu0 :  3.21e-02   
State 6/11               State 7/11               State 8/11               
00uu0uuuu0 :  9.43e-01   000uuuuu0u :  9.06e-01   000uuuuuu0 :  7.36e-01   
00u0uuuu0u :  2.66e-01   00uu0uuu0u :  3.32e-01   00u0uuuu0u : -5.56e-01   
00u0u0uuuu :  9.92e-02   000uu0uuuu :  1.68e-01   00uu0u0uuu :  2.11e-01   
0u0u0uuuu0 : -9.56e-02   0u0u0uuu0u :  1.11e-01   0u00uuuu0u : -1.45e-01   
0uu00uuu0u :  7.42e-02   00u0uuuuu0 : -7.20e-02   0u0u0uuuu0 :  1.32e-01   
00uuu0uuu0 :  6.26e-02   00uu00uuuu :  6.99e-02   0uu00uuu0u :  1.19e-01   
0uuu0uuu00 :  6.10e-02   00uuuuu00u :  6.23e-02   00uu0uuuu0 :  1.09e-01   
000uuuuuu0 :  6.08e-02   00uu0uu0uu :  6.04e-02   u0u00uuuu0 :  9.48e-02   
000uuu0uuu :  3.20e-02   u00uuuuu00 : -5.52e-02   00u0uuu0uu :  8.30e-02   
u000uuuuu0 : -2.71e-02   u0u00uuu0u :  4.69e-02   000uuu0uuu :  7.28e-02   
State 9/11               State 10/11              
00uu0uuu0u :  7.22e-01   00u0uuuu0u : -5.85e-01   
000uu0uuuu : -3.75e-01   000uuuuuu0 : -5.15e-01   
0u0u0uuu0u : -3.67e-01   000uuu0uuu :  3.44e-01   
00u0uuuuu0 : -2.39e-01   0u00uuuu0u : -3.15e-01   
00uu00uuuu :  2.01e-01   00u0u0uuuu : -2.49e-01   
000uuuuu0u : -1.92e-01   00uu0uuuu0 :  2.10e-01   
0u0u00uuuu : -1.33e-01   0u0u0uuuu0 : -1.39e-01   
00uu0uu0uu :  1.19e-01   0uu00uuu0u : -1.17e-01   
00u0uu0uuu :  1.02e-01   00u0uuu0uu :  1.01e-01   
0uu00uuuu0 :  9.57e-02   u000uuuuu0 : -6.75e-02   
Rootspace 23 with averaged weight 1.978e-07
 Frag    Nelec  2S+1   Ir     <n>  Max(weight)   Entropy
    0    3a+2b     6    A   0.130       0.9738  0.118152
    1    3a+3b     7    A   2.699       0.8885  0.119415
Wave function(s) in rootspace 23 in local primitive basis:
   Fac:  3.003e-04  6.199e-04  4.402e-04  5.384e-04  1.760e-04
   0.3:  9.447e-01  9.428e-01 -9.402e-01 -9.361e-01  9.307e-01
   0.0: -2.711e-01 -2.767e-01  2.838e-01  2.946e-01 -3.084e-01
   5.0: -1.195e-01 -1.200e-01  1.207e-01  1.218e-01 -1.231e-01
   0.2:  8.493e-02  8.771e-02 -9.132e-02 -9.675e-02  1.038e-01
   5.3: -7.699e-02 -7.739e-02  7.791e-02  7.870e-02 -7.967e-02
   5.2: -4.833e-02 -4.818e-02  4.798e-02  4.767e-02 -4.725e-02
  0.10: -2.800e-02 -2.804e-02  2.808e-02  2.814e-02 -2.821e-02
   1.0:  2.652e-02  2.639e-02 -2.621e-02 -2.594e-02  2.558e-02
   4.3: -2.003e-02 -2.012e-02  2.024e-02  2.042e-02 -2.064e-02
   4.0: -1.706e-02 -1.722e-02  1.743e-02  1.775e-02 -1.817e-02
  10.0:  1.700e-02  1.715e-02 -1.735e-02 -1.764e-02  1.802e-02
   4.2:  1.543e-02  1.550e-02 -1.560e-02 -1.575e-02  1.593e-02
  10.3:  1.521e-02  1.531e-02 -1.544e-02 -1.563e-02  1.587e-02
   0.8:  1.447e-02  1.450e-02 -1.453e-02 -1.457e-02  1.462e-02
   9.0:  1.217e-02  1.210e-02 -1.201e-02 -1.186e-02  1.167e-02
   2.1:  1.178e-02  1.178e-02 -1.178e-02 -1.177e-02  1.177e-02
   0.6: -1.086e-02 -1.088e-02  1.091e-02  1.096e-02 -1.102e-02
   1.3:  1.143e-02  1.124e-02 -1.099e-02 -1.062e-02  1.013e-02
   9.2: -1.032e-02 -1.027e-02  1.021e-02  1.012e-02 -9.997e-03
   3.4: -9.547e-03 -9.562e-03  9.581e-03  9.606e-03 -9.637e-03
   7.0: -9.211e-03 -9.326e-03  9.476e-03  9.703e-03 -9.998e-03
   3.1: -8.262e-03 -8.256e-03  8.248e-03  8.232e-03 -8.206e-03
   7.2: -7.199e-03 -7.145e-03  7.074e-03  6.965e-03 -6.823e-03
   9.3:  6.576e-03  6.558e-03 -6.534e-03 -6.495e-03  6.442e-03
   7.3: -4.243e-03 -4.279e-03  4.325e-03  4.394e-03 -4.487e-03
  10.2:  4.263e-03  4.187e-03 -4.090e-03 -3.941e-03  3.749e-03
   8.4:  3.267e-03  3.281e-03 -3.298e-03 -3.323e-03  3.355e-03
   1.2:  2.331e-03  2.317e-03 -2.299e-03 -2.273e-03  2.238e-03
   6.1: -2.260e-03 -2.263e-03  2.266e-03  2.269e-03 -2.271e-03
  5.10:  1.819e-03  1.819e-03 -1.818e-03 -1.817e-03  1.813e-03
   2.4: -1.169e-03 -1.190e-03  1.216e-03  1.255e-03 -1.306e-03
   8.1: -8.244e-04 -8.344e-04  8.477e-04  8.681e-04 -8.953e-04
   5.8: -5.044e-04 -5.050e-04  5.056e-04  5.067e-04 -5.078e-04
  9.10:  4.994e-04  5.002e-04 -5.013e-04 -5.028e-04  5.046e-04
 10.10: -4.172e-04 -4.179e-04  4.187e-04  4.198e-04 -4.211e-04
  7.10:  3.920e-04  3.928e-04 -3.937e-04 -3.951e-04  3.968e-04
   5.6:  3.441e-04  3.430e-04 -3.417e-04 -3.397e-04  3.369e-04
   6.4: -1.502e-04 -1.467e-04  1.419e-04  1.345e-04 -1.244e-04
  10.8:  1.389e-04  1.390e-04 -1.392e-04 -1.395e-04  1.398e-04
  1.10:  1.336e-04  1.313e-04 -1.284e-04 -1.240e-04  1.184e-04
   9.8: -1.080e-04 -1.082e-04  1.086e-04  1.091e-04 -1.098e-04
   0.4:  1.069e-04  1.071e-04 -1.074e-04 -1.078e-04  1.083e-04
   7.8: -1.054e-04 -1.056e-04  1.060e-04  1.064e-04 -1.071e-04
   4.8: -9.932e-05 -9.934e-05  9.940e-05  9.943e-05 -9.958e-05
   9.6:  8.855e-05  8.849e-05 -8.840e-05 -8.827e-05  8.806e-05
  10.6: -7.352e-05 -7.342e-05  7.329e-05  7.308e-05 -7.280e-05
   0.1: -7.261e-05 -7.235e-05  7.204e-05  7.151e-05 -7.084e-05
   7.6:  6.793e-05  6.789e-05 -6.785e-05 -6.778e-05  6.770e-05
Remaining 73 ENVs in rootspace 23 have combined average weight = 7.006531e-09
Leading 10 CSFs of 11 local primitive basis functions for fragment 0 in rootspace 23:
State 0/11               State 1/11               State 2/11               
00000uuuuu :  9.82e-01   0000u0uuuu : -9.09e-01   0000uuuu0u : -8.48e-01   
0000uuuuu0 : -1.14e-01   0000uuu0uu : -3.73e-01   0000uu0uuu : -4.88e-01   
000u00uuuu : -7.48e-02   00u0u00uuu :  9.11e-02   000uu0uu0u : -8.82e-02   
00u00u0uuu : -7.11e-02   0u00u0u0uu :  8.78e-02   00u0uu0u0u : -8.78e-02   
0u000uu0uu : -6.75e-02   u000u0uu0u :  7.35e-02   0u00uuu00u : -8.72e-02   
u0000uuu0u : -5.76e-02   000u00uuuu : -4.78e-02   0u000uuu0u : -6.36e-02   
uu000uu00u : -2.25e-02   00u0uu00uu : -4.04e-02   0u000u0uuu : -6.35e-02   
0uu00u00uu : -2.17e-02   000uu0u0uu : -3.86e-02   00u000uuuu :  5.20e-02   
000uu0uuu0 :  2.10e-02   00u00uuu0u :  3.76e-02   000uu00uuu : -5.06e-02   
0u0u00u0uu : -1.97e-02   00u00u0uuu :  3.63e-02   0u00uu00uu :  4.63e-02   
State 3/11               State 4/11               State 5/11               
0000uu0uuu : -8.49e-01   0000uuu0uu :  9.02e-01   0000uuuuu0 : -9.07e-01   
0000uuuu0u :  4.89e-01   0000u0uuuu : -3.79e-01   000u00uuuu :  2.98e-01   
0u00uu00uu :  8.62e-02   000uu0u0uu :  9.11e-02   00u00u0uuu :  1.83e-01   
000uu00uuu : -8.62e-02   00u0uu00uu :  9.01e-02   0u000uu0uu :  1.12e-01   
000u0u0uuu : -7.61e-02   u000uuu00u : -7.96e-02   0000uuu0uu : -8.60e-02   
u000uu0u0u :  7.02e-02   0000uuuuu0 : -6.91e-02   0u00uuu0u0 : -7.14e-02   
0u000u0uuu : -6.36e-02   000u00uuuu :  6.05e-02   u000uuuu00 : -6.74e-02   
0u00uuu00u :  5.38e-02   0u000uu0uu :  4.36e-02   00u0uu0uu0 : -6.66e-02   
000uu0uu0u :  4.98e-02   0u00u0u0uu :  3.73e-02   00000uuuuu : -5.71e-02   
00u0uu0u0u :  4.31e-02   00u0u00uuu :  3.45e-02   000uu0uuu0 : -5.51e-02   
State 6/11               State 7/11               State 8/11               
000u0uuu0u :  8.02e-01   000u0uu0uu : -6.25e-01   00u00uu0uu : -6.87e-01   
0u000uuu0u : -4.93e-01   000u0uuuu0 :  4.40e-01   00u000uuuu : -6.09e-01   
00u00uu0uu : -1.55e-01   000u00uuuu : -3.72e-01   00u00uuuu0 : -2.04e-01   
00u000uuuu : -1.23e-01   00u00uuu0u :  3.04e-01   000u0uuu0u : -1.90e-01   
00u00uuuu0 :  1.20e-01   0u000uu0uu :  2.86e-01   u0000uu0uu :  1.32e-01   
000u0u0uuu :  1.16e-01   00u00u0uuu :  1.67e-01   000u0u0uuu : -1.12e-01   
000uuuuu00 :  1.14e-01   0u000uuuu0 : -1.36e-01   u00000uuuu :  1.07e-01   
00uu0u0u0u :  7.83e-02   0u0000uuuu :  9.92e-02   00u0uuu0u0 : -9.53e-02   
0u0u0uu00u :  7.73e-02   000uuuu0u0 : -8.72e-02   00u0u0uuu0 : -9.04e-02   
0u00uuuu00 : -7.11e-02   0000uuuuu0 : -7.43e-02   00uu00u0uu :  6.88e-02   
State 9/11               State 10/11              
00u00uuu0u : -5.86e-01   000u0uuuu0 :  5.41e-01   
000u0uuuu0 : -4.75e-01   0u000uu0uu : -4.42e-01   
000u0uu0uu : -3.97e-01   0u0000uuuu : -4.42e-01   
000u00uuuu : -3.38e-01   000u00uuuu :  3.68e-01   
00u00u0uuu :  2.69e-01   00u00uuu0u : -2.80e-01   
0u0000uuuu : -1.83e-01   000u0uu0uu : -2.46e-01   
u0000uuu0u :  9.44e-02   0u00u0uuu0 : -6.61e-02   
00u0uuuu00 : -8.26e-02   000uu0uuu0 :  5.96e-02   
0000uuuuu0 : -6.09e-02   0u00uuu0u0 : -5.72e-02   
0uu00uu00u : -5.66e-02   00uu0u0uu0 :  5.38e-02   
Leading 10 CSFs of 11 local primitive basis functions for fragment 1 in rootspace 23:
State 0/11               State 1/11               State 2/11               
0000uuuuuu :  9.57e-01   000u0uuuuu :  9.91e-01   00u00uuuuu :  9.59e-01   
00u00uuuuu :  2.49e-01   0u0u0uuu0u : -6.41e-02   0000uuuuuu : -2.50e-01   
000uuu0uuu : -6.19e-02   000uu0uuuu :  6.41e-02   00u0u0uuuu :  6.08e-02   
0u00uuuu0u : -6.18e-02   00uu0uu0uu : -6.18e-02   00uu0u0uuu :  6.01e-02   
00u0uuu0uu : -5.97e-02   u00u0uuuu0 : -5.63e-02   u0u00uuuu0 : -5.96e-02   
0u000uuuuu : -5.95e-02   u0uu0uu0u0 : -2.39e-02   0uu00uuu0u : -5.84e-02   
u000uuuuu0 : -5.41e-02   0u0uu0uu0u :  2.28e-02   0uuu0u0u0u :  2.19e-02   
u0u0uuu0u0 : -2.30e-02   00uuu0u0uu :  2.07e-02   0uu0u0uu0u :  2.18e-02   
0u0uuu0u0u : -2.18e-02   u00uu0uuu0 :  1.95e-02   00uuu00uuu : -2.12e-02   
00uuuu00uu : -1.96e-02   0uuu0uu00u : -1.94e-02   u0uu0u0uu0 :  1.91e-02   
State 3/11               State 4/11               State 5/11               
0u000uuuuu : -9.89e-01   u0000uuuuu :  9.90e-01   00u0uuuuu0 :  9.33e-01   
0u00u0uuuu : -6.59e-02   u0u00uu0uu :  6.86e-02   00uu0uuu0u :  2.97e-01   
0u0u0u0uuu : -6.54e-02   u00u0u0uuu :  6.38e-02   0u00uuuuu0 :  1.30e-01   
0uu00uu0uu : -6.05e-02   u000u0uuuu :  6.36e-02   0uu00uuuu0 :  6.30e-02   
0000uuuuuu : -5.77e-02   uu000uuu0u :  6.08e-02   00uuuu0uu0 : -6.14e-02   
uu000uuuu0 :  5.48e-02   uu00u0uu0u : -2.27e-02   0uu0uuuu00 :  6.05e-02   
uuu00uu0u0 : -2.39e-02   uu0u0u0u0u : -2.25e-02   00u0uu0uuu : -5.91e-02   
0u0uu00uuu :  2.13e-02   u00uu00uuu : -2.14e-02   00uu00uuuu :  5.84e-02   
0uu0u0u0uu :  2.07e-02   u0u0u0u0uu : -2.04e-02   000uuuuu0u : -3.93e-02   
0uuu0u00uu :  2.06e-02   u0uu0u00uu : -2.03e-02   u00u0uuuu0 :  3.21e-02   
State 6/11               State 7/11               State 8/11               
00uu0uuuu0 :  9.43e-01   000uuuuu0u :  9.06e-01   000uuuuuu0 :  7.37e-01   
00u0uuuu0u :  2.65e-01   00uu0uuu0u :  3.32e-01   00u0uuuu0u : -5.55e-01   
00u0u0uuuu :  9.92e-02   000uu0uuuu :  1.69e-01   00uu0u0uuu :  2.11e-01   
0u0u0uuuu0 : -9.56e-02   0u0u0uuu0u :  1.11e-01   0u00uuuu0u : -1.45e-01   
0uu00uuu0u :  7.42e-02   00u0uuuuu0 : -7.18e-02   0u0u0uuuu0 :  1.32e-01   
00uuu0uuu0 :  6.26e-02   00uu00uuuu :  7.01e-02   0uu00uuu0u :  1.19e-01   
0uuu0uuu00 :  6.10e-02   00uuuuu00u :  6.23e-02   00uu0uuuu0 :  1.09e-01   
000uuuuuu0 :  6.09e-02   00uu0uu0uu :  6.07e-02   u0u00uuuu0 :  9.48e-02   
000uuu0uuu :  3.21e-02   u00uuuuu00 : -5.52e-02   00u0uuu0uu :  8.27e-02   
u000uuuuu0 : -2.71e-02   u0u00uuu0u :  4.69e-02   000uuu0uuu :  7.26e-02   
State 9/11               State 10/11              
00uu0uuu0u :  7.22e-01   00u0uuuu0u : -5.86e-01   
000uu0uuuu : -3.75e-01   000uuuuuu0 : -5.14e-01   
0u0u0uuu0u : -3.67e-01   000uuu0uuu :  3.44e-01   
00u0uuuuu0 : -2.38e-01   0u00uuuu0u : -3.15e-01   
00uu00uuuu :  2.02e-01   00u0u0uuuu : -2.49e-01   
000uuuuu0u : -1.91e-01   00uu0uuuu0 :  2.10e-01   
0u0u00uuuu : -1.34e-01   0u0u0uuuu0 : -1.39e-01   
00uu0uu0uu :  1.19e-01   0uu00uuu0u : -1.17e-01   
00u0uu0uuu :  1.03e-01   00u0uuu0uu :  1.01e-01   
0uu00uuuu0 :  9.63e-02   u000uuuuu0 : -6.74e-02   
All 33 rootspaces accounted for
