#INFO: **** input file is /project/lgagliardi/valayagarawal/lasscf/mof_nodes/Al_Fe_Fe/production/20_11/lassi_1_9.py ****
import numpy as np
import sys
from pyscf import gto, scf, tools,lib, mcscf
from pyscf.mcscf import avas,project_init_guess
from pyscf import mcscf
from mrh.my_pyscf.tools import molden
from mrh.my_pyscf.mcscf import lasscf_async as asyn
mol_name='Al_Fe_Fe.xyz' # Al-Fe-Fe MOF node
basis={'C': 'cc-pvdz','H': 'cc-pvdz','O': 'cc-pvtz','Al': 'cc-pvtz','Fe': 'cc-pvtz'}
n=9
output='r1_n'+str(n)+'.log'
mol=gto.M(atom=mol_name,verbose=4,spin=9,charge=0,basis=basis, output=output) #spin = 2S
mf=scf.RHF(mol)
mf.init_guess='atom'
mf=mf.density_fit()
mf.max_cycle=1
mf.kernel()
mf.mo_coeff=np.load('hf.npy')
#np.save('hf',mf.mo_coeff)
#ncas,nelecas,guess_mo_coeff=avas.kernel(mf,['Fe 3d', 'Fe 4d'],minao=mol.basis, openshell_option=3)
#mc_test = mcscf.CASCI (mf, ncas, nelecas)
#tools.molden.from_mo(mol,'avas.molden',guess_mo_coeff[:,mc_test.ncore:][:,:ncas])
#final_list=[5,6,8,9,10,11,12,13,14]#,15,16,17,18,19,20,21,22,23,24,25]+mc_test.ncore

mo_guess=np.load('las_20_11.npy')
las=asyn.LASSCF(mf,(10,10),((1,5),(5,0)),spin_sub=(5,6),verbose=4) # spin is 2S+1
las.set_fragments_(([17],[19]),mo_guess)
las.mo_coeff=mo_guess
from mrh.my_pyscf.lassi import states
las=states.spin_shuffle(las)
#for _ in range(i):
las=states.all_single_excitations(las)
ncsf=las.get_ugg().ncsf_sub
lroots=np.minimum(n,ncsf)
las.lasci()
las.lasci(lroots=lroots)
e_roots, si= las.lassi(opt=1)
from mrh.my_pyscf.lassi.sitools import analyze
analyze(las,si, state=[0,1,2,3,4])
#INFO: ******************** input file end ********************


System: uname_result(system='Linux', node='midway3-0545.rcc.local', release='4.18.0-305.3.1.el8.x86_64', version='#1 SMP Tue Jun 1 16:14:33 UTC 2021', machine='x86_64')  Threads 16
Python 3.9.12 (main, Apr  5 2022, 06:56:58) 
[GCC 7.5.0]
numpy 1.25.0  scipy 1.7.3
Date: Tue Feb 20 18:13:26 2024
PySCF version 2.5.0
PySCF path  /project/lgagliardi/shared/Apps/pyscf
GIT ORIG_HEAD 0bc590ffddec98eec5d2513a3d85274b7a791bc6
GIT HEAD (branch master) 6f8ce439fbe0c26ec4d226e2225b28c7f668f922

[ENV] PYSCF_MAX_MEMORY 128000
[CONFIG] conf_file /home/valayagarawal/.pyscf_conf.py
[INPUT] verbose = 4
[INPUT] num. atoms = 28
[INPUT] num. electrons = 211
[INPUT] charge = 0
[INPUT] spin (= nelec alpha-beta = 2S) = 9
[INPUT] symmetry False subgroup None
[INPUT] Mole.unit = angstrom
[INPUT] Symbol           X                Y                Z      unit          X                Y                Z       unit  Magmom
[INPUT]  1 O     -2.220198244100   0.399190300300   1.694471698900 AA   -4.195566623589   0.754360339150   3.202087436747 Bohr   0.0
[INPUT]  2 O     -1.685553244600  -1.782306321700   1.431399507200 AA   -3.185234000666  -3.368070818094   2.704953043445 Bohr   0.0
[INPUT]  3 C     -2.268517865100  -0.831955037900   1.983951274000 AA   -4.286877473722  -1.572167169583   3.749124552342 Bohr   0.0
[INPUT]  4 H     -2.913342016700  -1.076728588500   2.843786805300 AA   -5.505418518751  -2.034722142755   5.373978218669 Bohr   0.0
[INPUT]  5 O      1.388288080900   2.079556156200  -1.347085675300 AA    2.623484254899   3.929791595871  -2.545622992642 Bohr   0.0
[INPUT]  6 O     -0.759908859500   2.580923634700  -0.849227704000 AA   -1.436019624086   4.877238818000  -1.604807777953 Bohr   0.0
[INPUT]  7 C      0.346567468600   2.753895325000  -1.438835699000 AA    0.654917599338   5.204107939970  -2.719005409357 Bohr   0.0
[INPUT]  8 H      0.372379614500   3.617699659800  -2.123091150300 AA    0.703695485776   6.836461557954  -4.012060811555 Bohr   0.0
[INPUT]  9 O      1.046960908100  -2.642534200000   0.961324672200 AA    1.978469379435  -4.993665912797   1.816640347245 Bohr   0.0
[INPUT] 10 O     -0.399190300300   2.220198244100   1.694471698900 AA   -0.754360339150   4.195566623589   3.202087436747 Bohr   0.0
[INPUT] 11 O      1.782306321700   1.685553244600   1.431399507200 AA    3.368070818094   3.185234000666   2.704953043445 Bohr   0.0
[INPUT] 12 C      0.831955037900   2.268517865100   1.983951274000 AA    1.572167169583   4.286877473722   3.749124552342 Bohr   0.0
[INPUT] 13 H      1.076728588500   2.913342016700   2.843786805300 AA    2.034722142755   5.505418518751   5.373978218669 Bohr   0.0
[INPUT] 14 O     -2.079556156200  -1.388288080900  -1.347085675300 AA   -3.929791595871  -2.623484254899  -2.545622992642 Bohr   0.0
[INPUT] 15 O     -2.580923634700   0.759908859500  -0.849227704000 AA   -4.877238818000   1.436019624086  -1.604807777953 Bohr   0.0
[INPUT] 16 C     -2.753895325000  -0.346567468600  -1.438835699000 AA   -5.204107939970  -0.654917599338  -2.719005409357 Bohr   0.0
[INPUT] 17 H     -3.617699659800  -0.372379614500  -2.123091150300 AA   -6.836461557954  -0.703695485776  -4.012060811555 Bohr   0.0
[INPUT] 18 Fe    -0.379874189300  -1.792603362900  -0.200337730300 AA   -0.717858179568  -3.387529405855  -0.378583442684 Bohr   0.0
[INPUT] 19 O      0.642223180300  -2.237796553000  -1.892914517600 AA    1.213625921614  -4.228822607666  -3.577090015477 Bohr   0.0
[INPUT] 20 Fe     1.792603362900   0.379874189300  -0.200337730300 AA    3.387529405855   0.717858179568  -0.378583442684 Bohr   0.0
[INPUT] 21 O      2.237796553000  -0.642223180300  -1.892914517600 AA    4.228822607666  -1.213625921614  -3.577090015477 Bohr   0.0
[INPUT] 22 O      2.642534200000  -1.046960908100   0.961324672200 AA    4.993665912797  -1.978469379435   1.816640347245 Bohr   0.0
[INPUT] 23 Al    -1.236271642100   1.236271642100   0.350650148000 AA   -2.336214819135   2.336214819135   0.662632745258 Bohr   0.0
[INPUT] 24 O     -0.044950195400   0.044950195400   0.012762141300 AA   -0.084943558552   0.084943558552   0.024116951820 Bohr   0.0
[INPUT] 25 C      1.645528685000  -1.645528685000  -2.357112465400 AA    3.109598544766  -3.109598544766  -4.454297004404 Bohr   0.0
[INPUT] 26 H      2.056906298400  -2.056906298400  -3.294571291600 AA    3.886989567869  -3.886989567869  -6.225837438979 Bohr   0.0
[INPUT] 27 C      2.160924281100  -2.160924281100   1.277584186800 AA    4.083555067202  -4.083555067202   2.414284214127 Bohr   0.0
[INPUT] 28 H      2.796080543300  -2.796080543300   1.918244302400 AA    5.283826449062  -5.283826449062   3.624956371543 Bohr   0.0

nuclear repulsion = 3455.30471244119
number of shells = 192
number of NR pGTOs = 1065
number of NR cGTOs = 674
basis = {'C': 'cc-pvdz', 'H': 'cc-pvdz', 'O': 'cc-pvtz', 'Al': 'cc-pvtz', 'Fe': 'cc-pvtz'}
ecp = {}
CPU time:         0.60


******** <class 'pyscf.df.df_jk.DFROHF'> ********
method = DFROHF
initial guess = atom
damping factor = 0
level_shift factor = 0
DIIS = <class 'pyscf.scf.diis.CDIIS'>
diis_start_cycle = 1
diis_space = 8
diis_damp = 0
SCF conv_tol = 1e-09
SCF conv_tol_grad = None
SCF max_cycles = 1
direct_scf = False
chkfile to save SCF result = /scratch/local/jobs/17478238/tmpzfplp5_6
max_memory 128000 MB (current use 76 MB)
num. doubly occ = 101  num. singly occ = 9
Set gradient conv threshold to 3.16228e-05
Initial guess from the superpostion of atomic densties.
Spherically averaged atomic HF for {'Fe', 'O', 'C', 'H', 'Al'}


******** <class 'pyscf.scf.atom_hf.AtomSphAverageRHF'> ********
method = AtomSphAverageRHF
initial guess = minao
damping factor = 0
level_shift factor = 0
DIIS = <class 'pyscf.scf.diis.CDIIS'>
diis_start_cycle = 1
diis_space = 8
diis_damp = 0
SCF conv_tol = 1e-09
SCF conv_tol_grad = None
SCF max_cycles = 50
direct_scf = True
direct_scf_tol = 1e-13
chkfile to save SCF result = /scratch/local/jobs/17478238/tmpl8om01ff
max_memory 128000 MB (current use 76 MB)
atom = O
Set gradient conv threshold to 3.16228e-05
Initial guess from minao.
init E= -74.2776996160121
cycle= 1 E= -74.2879632957298  delta_E= -0.0103  |g|=    0  |ddm|= 0.12
cycle= 2 E= -74.2889455295059  delta_E= -0.000982  |g|=    0  |ddm|= 0.0571
cycle= 3 E= -74.2891874928551  delta_E= -0.000242  |g|=    0  |ddm|= 0.0164
cycle= 4 E= -74.2891907662377  delta_E= -3.27e-06  |g|=    0  |ddm|= 0.00334
cycle= 5 E= -74.2891907667003  delta_E= -4.63e-10  |g|=    0  |ddm|= 2.73e-05
Extra cycle  E= -74.2891907667016  delta_E= -1.31e-12  |g|=    0  |ddm|= 2.08e-06
Atomic HF for atom  O  converged. SCF energy = -74.2891907667016



******** <class 'pyscf.scf.atom_hf.AtomSphAverageRHF'> ********
method = AtomSphAverageRHF
initial guess = minao
damping factor = 0
level_shift factor = 0
DIIS = <class 'pyscf.scf.diis.CDIIS'>
diis_start_cycle = 1
diis_space = 8
diis_damp = 0
SCF conv_tol = 1e-09
SCF conv_tol_grad = None
SCF max_cycles = 50
direct_scf = True
direct_scf_tol = 1e-13
chkfile to save SCF result = /scratch/local/jobs/17478238/tmp73fez7zf
max_memory 128000 MB (current use 101 MB)
atom = C
Set gradient conv threshold to 3.16228e-05
Initial guess from minao.
init E= -37.2786538116583
cycle= 1 E= -37.3229525149147  delta_E= -0.0443  |g|=    0  |ddm|= 0.403
cycle= 2 E= -37.3269979443145  delta_E= -0.00405  |g|=    0  |ddm|= 0.158
cycle= 3 E= -37.3274168905011  delta_E= -0.000419  |g|=    0  |ddm|= 0.0324
cycle= 4 E= -37.3274218270201  delta_E= -4.94e-06  |g|=    0  |ddm|= 0.00651
cycle= 5 E= -37.3274218271775  delta_E= -1.57e-10  |g|=    0  |ddm|= 2.35e-05
Extra cycle  E= -37.3274218271781  delta_E= -6.39e-13  |g|=    0  |ddm|= 2.26e-06
Atomic HF for atom  C  converged. SCF energy = -37.3274218271781



******** 1 electron system ********
Atomic HF for atom  H  converged. SCF energy = -0.499278403419583



******** <class 'pyscf.scf.atom_hf.AtomSphAverageRHF'> ********
method = AtomSphAverageRHF
initial guess = minao
damping factor = 0
level_shift factor = 0
DIIS = <class 'pyscf.scf.diis.CDIIS'>
diis_start_cycle = 1
diis_space = 8
diis_damp = 0
SCF conv_tol = 1e-09
SCF conv_tol_grad = None
SCF max_cycles = 50
direct_scf = True
direct_scf_tol = 1e-13
chkfile to save SCF result = /scratch/local/jobs/17478238/tmpaye8_hys
max_memory 128000 MB (current use 102 MB)
atom = Fe
Set gradient conv threshold to 3.16228e-05
Initial guess from minao.
init E= -1260.96738533155
cycle= 1 E= -1256.37714318082  delta_E= 4.59  |g|=    0  |ddm|= 4.24
cycle= 2 E= -1255.54237595451  delta_E= 0.835  |g|=    0  |ddm|=   15
cycle= 3 E= -1260.89038467173  delta_E= -5.35  |g|=    0  |ddm|= 13.7
cycle= 4 E= -1261.57047534209  delta_E= -0.68  |g|=    0  |ddm|= 0.824
cycle= 5 E= -1261.57622492119  delta_E= -0.00575  |g|=    0  |ddm|= 0.301
cycle= 6 E= -1261.57666902675  delta_E= -0.000444  |g|=    0  |ddm|= 0.0322
cycle= 7 E= -1261.57674274459  delta_E= -7.37e-05  |g|=    0  |ddm|= 0.0137
cycle= 8 E= -1261.57674388082  delta_E= -1.14e-06  |g|=    0  |ddm|= 0.00344
cycle= 9 E= -1261.57674388923  delta_E= -8.41e-09  |g|=    0  |ddm|= 0.000127
cycle= 10 E= -1261.57674388923  delta_E= -2.73e-12  |g|=    0  |ddm|= 3.35e-06
Extra cycle  E= -1261.57674388923  delta_E= 9.09e-13  |g|=    0  |ddm|= 3.97e-07
Atomic HF for atom  Fe  converged. SCF energy = -1261.57674388923



******** <class 'pyscf.scf.atom_hf.AtomSphAverageRHF'> ********
method = AtomSphAverageRHF
initial guess = minao
damping factor = 0
level_shift factor = 0
DIIS = <class 'pyscf.scf.diis.CDIIS'>
diis_start_cycle = 1
diis_space = 8
diis_damp = 0
SCF conv_tol = 1e-09
SCF conv_tol_grad = None
SCF max_cycles = 50
direct_scf = True
direct_scf_tol = 1e-13
chkfile to save SCF result = /scratch/local/jobs/17478238/tmp67vss21p
max_memory 128000 MB (current use 160 MB)
atom = Al
Set gradient conv threshold to 3.16228e-05
Initial guess from minao.
init E= -241.752580224975
cycle= 1 E= -241.774394279578  delta_E= -0.0218  |g|=    0  |ddm|= 0.33
cycle= 2 E= -241.774822880148  delta_E= -0.000429  |g|=    0  |ddm|= 0.0589
cycle= 3 E= -241.77484101355  delta_E= -1.81e-05  |g|=    0  |ddm|= 0.00725
cycle= 4 E= -241.774841578884  delta_E= -5.65e-07  |g|=    0  |ddm|= 0.00216
cycle= 5 E= -241.774841604663  delta_E= -2.58e-08  |g|=    0  |ddm|= 0.000719
cycle= 6 E= -241.774841604811  delta_E= -1.48e-10  |g|=    0  |ddm|= 5.97e-05
Extra cycle  E= -241.774841604812  delta_E= -1.34e-12  |g|=    0  |ddm|= 4.44e-06
Atomic HF for atom  Al  converged. SCF energy = -241.774841604812

******** <class 'pyscf.df.df.DF'> ********
auxbasis = None
max_memory = 128000
Even tempered Gaussians are generated as DF auxbasis for  C H Fe O Al
init E= -3975.68788353038
  HOMO = -0.0424478076029156  LUMO = -0.0316668341931219
cycle= 1 E= -3969.65777955844  delta_E= 6.03  |g|= 3.14  |ddm|= 4.67
SCF not converged.
SCF energy = -3969.65777955844
Built 4 spin(local Sz)-shuffled LAS states from 1 reference LAS states
Built 28 singly-excited LAS states from 5 reference LAS states
Entering product-state fixed-point CI iteration
Cycle 0: max grad = 1.884708e-01 ; sigma = 0.000000e+00
Cycle 1: max grad = 1.229424e-05 ; sigma = 3.346305e-02
Cycle 2: max grad = 2.560975e-06 ; sigma = 8.627410e-11
Product_state fixed-point CI iteration converged after 2 cycles
Entering product-state fixed-point CI iteration
Cycle 0: max grad = 1.884708e-01 ; sigma = 0.000000e+00
Cycle 1: max grad = 5.393863e-06 ; sigma = 3.348211e-02
Cycle 2: max grad = 2.369173e-06 ; sigma = 5.265122e-12
Product_state fixed-point CI iteration converged after 2 cycles
Entering product-state fixed-point CI iteration
Cycle 0: max grad = 1.884708e-01 ; sigma = 0.000000e+00
Cycle 1: max grad = 3.475708e-06 ; sigma = 3.349033e-02
Cycle 2: max grad = 2.276478e-06 ; sigma = 6.231460e-12
Product_state fixed-point CI iteration converged after 2 cycles
Entering product-state fixed-point CI iteration
Cycle 0: max grad = 1.884708e-01 ; sigma = 0.000000e+00
Cycle 1: max grad = 3.522775e-06 ; sigma = 3.348759e-02
Cycle 2: max grad = 2.308122e-06 ; sigma = 8.562040e-12
Product_state fixed-point CI iteration converged after 2 cycles
Entering product-state fixed-point CI iteration
Cycle 0: max grad = 1.884708e-01 ; sigma = 0.000000e+00
Cycle 1: max grad = 8.368410e-06 ; sigma = 3.347392e-02
Cycle 2: max grad = 2.455328e-06 ; sigma = 1.882938e-11
Product_state fixed-point CI iteration converged after 2 cycles
Entering product-state fixed-point CI iteration
Cycle 0: max grad = 2.784311e-01 ; sigma = 0.000000e+00
Cycle 1: max grad = 4.634879e-05 ; sigma = 5.318269e-02
Cycle 2: max grad = 5.292951e-07 ; sigma = 5.085565e-08
Cycle 3: max grad = 8.523434e-10 ; sigma = 6.181722e-13
Product_state fixed-point CI iteration converged after 3 cycles
Entering product-state fixed-point CI iteration
Cycle 0: max grad = 3.067236e-01 ; sigma = 0.000000e+00
Cycle 1: max grad = 5.992311e-04 ; sigma = 1.169371e-01
Cycle 2: max grad = 2.250365e-06 ; sigma = 4.611400e-06
Cycle 3: max grad = 9.943609e-07 ; sigma = 9.109158e-12
Product_state fixed-point CI iteration converged after 3 cycles
Entering product-state fixed-point CI iteration
Cycle 0: max grad = 2.327562e-01 ; sigma = 0.000000e+00
Cycle 1: max grad = 5.648643e-04 ; sigma = 4.391494e-02
Cycle 2: max grad = 4.292256e-06 ; sigma = 2.400541e-06
Cycle 3: max grad = 8.594107e-07 ; sigma = 5.904610e-12
Product_state fixed-point CI iteration converged after 3 cycles
Entering product-state fixed-point CI iteration
Cycle 0: max grad = 3.083310e-01 ; sigma = 0.000000e+00
Cycle 1: max grad = 1.806373e-04 ; sigma = 5.815313e-03
Cycle 2: max grad = 3.471513e-06 ; sigma = 1.001354e-06
Cycle 3: max grad = 3.580480e-06 ; sigma = 1.041016e-10
Cycle 4: max grad = 1.643296e-06 ; sigma = 2.629008e-12
Product_state fixed-point CI iteration converged after 4 cycles
Entering product-state fixed-point CI iteration
Cycle 0: max grad = 2.551366e-01 ; sigma = 0.000000e+00
Cycle 1: max grad = 2.036378e-04 ; sigma = 8.150694e-02
Cycle 2: max grad = 1.928086e-06 ; sigma = 9.333423e-07
Cycle 3: max grad = 8.431799e-07 ; sigma = 2.671143e-10
Cycle 4: max grad = 4.869203e-07 ; sigma = 1.118394e-11
Product_state fixed-point CI iteration converged after 4 cycles
Entering product-state fixed-point CI iteration
Cycle 0: max grad = 3.077537e-01 ; sigma = 0.000000e+00
Cycle 1: max grad = 3.556113e-04 ; sigma = 3.436487e-02
Cycle 2: max grad = 1.955002e-06 ; sigma = 2.408482e-07
Cycle 3: max grad = 1.232657e-06 ; sigma = 1.878675e-11
Product_state fixed-point CI iteration converged after 3 cycles
Entering product-state fixed-point CI iteration
Cycle 0: max grad = 2.785850e-01 ; sigma = 0.000000e+00
Cycle 1: max grad = 4.595661e-05 ; sigma = 5.318012e-02
Cycle 2: max grad = 5.618072e-07 ; sigma = 5.927162e-08
Cycle 3: max grad = 7.166707e-10 ; sigma = 6.359357e-13
Product_state fixed-point CI iteration converged after 3 cycles
Entering product-state fixed-point CI iteration
Cycle 0: max grad = 3.067052e-01 ; sigma = 0.000000e+00
Cycle 1: max grad = 5.861469e-04 ; sigma = 1.170948e-01
Cycle 2: max grad = 2.135161e-06 ; sigma = 4.179263e-06
Cycle 3: max grad = 1.320258e-06 ; sigma = 9.045209e-12
Product_state fixed-point CI iteration converged after 3 cycles
Entering product-state fixed-point CI iteration
Cycle 0: max grad = 2.327512e-01 ; sigma = 0.000000e+00
Cycle 1: max grad = 5.626359e-04 ; sigma = 4.458519e-02
Cycle 2: max grad = 4.646999e-06 ; sigma = 4.939012e-06
Cycle 3: max grad = 6.020661e-07 ; sigma = 1.313438e-11
Product_state fixed-point CI iteration converged after 3 cycles
Entering product-state fixed-point CI iteration
Cycle 0: max grad = 3.083128e-01 ; sigma = 0.000000e+00
Cycle 1: max grad = 2.345229e-04 ; sigma = 5.828458e-03
Cycle 2: max grad = 5.566392e-06 ; sigma = 1.777866e-06
Cycle 3: max grad = 1.318146e-06 ; sigma = 3.041478e-10
Cycle 4: max grad = 1.083318e-06 ; sigma = 3.396394e-12
Product_state fixed-point CI iteration converged after 4 cycles
Entering product-state fixed-point CI iteration
Cycle 0: max grad = 2.550410e-01 ; sigma = 0.000000e+00
Cycle 1: max grad = 2.379875e-04 ; sigma = 8.171111e-02
Cycle 2: max grad = 1.927086e-06 ; sigma = 1.317811e-06
Cycle 3: max grad = 9.762213e-07 ; sigma = 3.389822e-10
Cycle 4: max grad = 5.648514e-07 ; sigma = 1.476508e-11
Product_state fixed-point CI iteration converged after 4 cycles
Entering product-state fixed-point CI iteration
Cycle 0: max grad = 3.077285e-01 ; sigma = 0.000000e+00
Cycle 1: max grad = 3.454360e-04 ; sigma = 3.460276e-02
Cycle 2: max grad = 2.317995e-06 ; sigma = 4.272843e-07
Cycle 3: max grad = 1.132493e-06 ; sigma = 8.860468e-12
Product_state fixed-point CI iteration converged after 3 cycles
Entering product-state fixed-point CI iteration
Cycle 0: max grad = 2.786705e-01 ; sigma = 0.000000e+00
Cycle 1: max grad = 4.651225e-05 ; sigma = 5.317862e-02
Cycle 2: max grad = 5.794670e-07 ; sigma = 6.407414e-08
Cycle 3: max grad = 6.451031e-10 ; sigma = 6.359357e-13
Product_state fixed-point CI iteration converged after 3 cycles
Entering product-state fixed-point CI iteration
Cycle 0: max grad = 3.067015e-01 ; sigma = 0.000000e+00
Cycle 1: max grad = 5.835233e-04 ; sigma = 1.171264e-01
Cycle 2: max grad = 2.112375e-06 ; sigma = 4.118256e-06
Cycle 3: max grad = 1.202589e-06 ; sigma = 7.389644e-12
Product_state fixed-point CI iteration converged after 3 cycles
Entering product-state fixed-point CI iteration
Cycle 0: max grad = 2.327502e-01 ; sigma = 0.000000e+00
Cycle 1: max grad = 5.629732e-04 ; sigma = 4.471923e-02
Cycle 2: max grad = 4.715402e-06 ; sigma = 5.349624e-06
Cycle 3: max grad = 5.617916e-07 ; sigma = 1.450928e-11
Product_state fixed-point CI iteration converged after 3 cycles
Entering product-state fixed-point CI iteration
Cycle 0: max grad = 3.083092e-01 ; sigma = 0.000000e+00
Cycle 1: max grad = 2.491446e-04 ; sigma = 5.831027e-03
Cycle 2: max grad = 6.002161e-06 ; sigma = 1.870328e-06
Cycle 3: max grad = 1.760538e-06 ; sigma = 3.922054e-10
Cycle 4: max grad = 1.220893e-06 ; sigma = 1.052314e-11
Product_state fixed-point CI iteration converged after 4 cycles
Entering product-state fixed-point CI iteration
Cycle 0: max grad = 2.550219e-01 ; sigma = 0.000000e+00
Cycle 1: max grad = 2.449739e-04 ; sigma = 8.175297e-02
Cycle 2: max grad = 1.955722e-06 ; sigma = 1.402521e-06
Cycle 3: max grad = 1.005238e-06 ; sigma = 3.552252e-10
Cycle 4: max grad = 5.831845e-07 ; sigma = 1.566036e-11
Product_state fixed-point CI iteration converged after 4 cycles
Entering product-state fixed-point CI iteration
Cycle 0: max grad = 3.077235e-01 ; sigma = 0.000000e+00
Cycle 1: max grad = 3.433519e-04 ; sigma = 3.465135e-02
Cycle 2: max grad = 2.389028e-06 ; sigma = 4.710340e-07
Cycle 3: max grad = 1.062282e-06 ; sigma = 6.558309e-12
Product_state fixed-point CI iteration converged after 3 cycles
Entering product-state fixed-point CI iteration
Cycle 0: max grad = 2.786876e-01 ; sigma = 0.000000e+00
Cycle 1: max grad = 4.673089e-05 ; sigma = 5.317831e-02
Cycle 2: max grad = 5.829607e-07 ; sigma = 6.504432e-08
Cycle 3: max grad = 6.311477e-10 ; sigma = 6.146195e-13
Product_state fixed-point CI iteration converged after 3 cycles
Entering product-state fixed-point CI iteration
Cycle 0: max grad = 3.067125e-01 ; sigma = 0.000000e+00
Cycle 1: max grad = 5.913872e-04 ; sigma = 1.170316e-01
Cycle 2: max grad = 2.179901e-06 ; sigma = 4.326966e-06
Cycle 3: max grad = 2.905984e-07 ; sigma = 7.268852e-12
Product_state fixed-point CI iteration converged after 3 cycles
Entering product-state fixed-point CI iteration
Cycle 0: max grad = 2.327532e-01 ; sigma = 0.000000e+00
Cycle 1: max grad = 5.619537e-04 ; sigma = 4.431709e-02
Cycle 2: max grad = 4.507687e-06 ; sigma = 4.019992e-06
Cycle 3: max grad = 6.936838e-07 ; sigma = 1.059419e-11
Product_state fixed-point CI iteration converged after 3 cycles
Entering product-state fixed-point CI iteration
Cycle 0: max grad = 3.083201e-01 ; sigma = 0.000000e+00
Cycle 1: max grad = 2.055908e-04 ; sigma = 5.823260e-03
Cycle 2: max grad = 4.711353e-06 ; sigma = 1.531161e-06
Cycle 3: max grad = 2.353117e-06 ; sigma = 2.384297e-10
Cycle 4: max grad = 1.042747e-06 ; sigma = 9.166001e-12
Product_state fixed-point CI iteration converged after 4 cycles
Entering product-state fixed-point CI iteration
Cycle 0: max grad = 2.550792e-01 ; sigma = 0.000000e+00
Cycle 1: max grad = 2.241311e-04 ; sigma = 8.162841e-02
Cycle 2: max grad = 1.913730e-06 ; sigma = 1.156262e-06
Cycle 3: max grad = 9.208399e-07 ; sigma = 3.084644e-10
Cycle 4: max grad = 5.292846e-07 ; sigma = 1.308464e-11
Product_state fixed-point CI iteration converged after 4 cycles
Entering product-state fixed-point CI iteration
Cycle 0: max grad = 3.077386e-01 ; sigma = 0.000000e+00
Cycle 1: max grad = 3.495559e-04 ; sigma = 3.450660e-02
Cycle 2: max grad = 2.174276e-06 ; sigma = 3.461726e-07
Cycle 3: max grad = 1.213587e-06 ; sigma = 1.323031e-11
Product_state fixed-point CI iteration converged after 3 cycles
Entering product-state fixed-point CI iteration
Cycle 0: max grad = 2.786363e-01 ; sigma = 0.000000e+00
Cycle 1: max grad = 4.607566e-05 ; sigma = 5.317923e-02
Cycle 2: max grad = 5.724407e-07 ; sigma = 6.214314e-08
Cycle 3: max grad = 6.733785e-10 ; sigma = 6.963319e-13
Product_state fixed-point CI iteration converged after 3 cycles
Entering product-state fixed-point CI iteration
Cycle 0: max grad = 2.327602e-01 ; sigma = 0.000000e+00
Cycle 1: max grad = 6.209126e-04 ; sigma = 4.337872e-02
Cycle 2: max grad = 3.992423e-06 ; sigma = 1.978465e-07
Cycle 3: max grad = 1.137854e-06 ; sigma = 3.957723e-12
Product_state fixed-point CI iteration converged after 3 cycles
Entering product-state fixed-point CI iteration
Cycle 0: max grad = 3.077738e-01 ; sigma = 0.000000e+00
Cycle 1: max grad = 3.634427e-04 ; sigma = 3.418067e-02
Cycle 2: max grad = 3.346335e-06 ; sigma = 1.317945e-07
Cycle 3: max grad = 4.962140e-07 ; sigma = 9.585222e-12
Product_state fixed-point CI iteration converged after 3 cycles
Entering product-state fixed-point CI iteration
Cycle 0: max grad = 2.785166e-01 ; sigma = 0.000000e+00
Cycle 1: max grad = 4.605856e-05 ; sigma = 5.318129e-02
Cycle 2: max grad = 5.474639e-07 ; sigma = 5.549293e-08
Cycle 3: max grad = 7.759516e-10 ; sigma = 5.684342e-13
Product_state fixed-point CI iteration converged after 3 cycles
LASSCF state-average energy = -3971.89018525224
LASSCF state 0 energy = -3971.89018525224
LASSCF state 1 energy = -3971.89049467745
LASSCF state 2 energy = -3971.8906273398
LASSCF state 3 energy = -3971.89058311557
LASSCF state 4 energy = -3971.89036204604
LASSCF state 5 energy = -3969.48093908276
LASSCF state 6 energy = -3970.98995513759
LASSCF state 7 energy = -3969.569277641
LASSCF state 8 energy = -3971.5111195471
LASSCF state 9 energy = -3969.35032714229
LASSCF state 10 energy = -3971.64263382622
LASSCF state 11 energy = -3969.48199401442
LASSCF state 12 energy = -3970.99011278563
LASSCF state 13 energy = -3969.56971596364
LASSCF state 14 energy = -3971.51146460594
LASSCF state 15 energy = -3969.3507335344
LASSCF state 16 energy = -3971.64312475168
LASSCF state 17 energy = -3969.48258018069
LASSCF state 18 energy = -3970.99014433942
LASSCF state 19 energy = -3969.56980395116
LASSCF state 20 energy = -3971.51153490949
LASSCF state 21 energy = -3969.35081586567
LASSCF state 22 energy = -3971.64322411903
LASSCF state 23 energy = -3969.48269742185
LASSCF state 24 energy = -3970.99004970236
LASSCF state 25 energy = -3969.56954031213
LASSCF state 26 energy = -3971.51132530586
LASSCF state 27 energy = -3969.35056993026
LASSCF state 28 energy = -3971.64292719394
LASSCF state 29 energy = -3969.48234570627
LASSCF state 30 energy = -3969.56892890982
LASSCF state 31 energy = -3971.64224828029
LASSCF state 32 energy = -3969.48152512913
Entering product-state fixed-point CI iteration
Cycle 0: max grad = 6.518978e+02 ; sigma = 0.000000e+00
Cycle 1: max grad = 8.210361e-06 ; sigma = 6.295409e-11
Product_state fixed-point CI iteration converged after 1 cycles
Entering product-state fixed-point CI iteration
Cycle 0: max grad = 6.519310e+02 ; sigma = 0.000000e+00
Cycle 1: max grad = 1.728844e-05 ; sigma = 5.989875e-11
Product_state fixed-point CI iteration converged after 1 cycles
Entering product-state fixed-point CI iteration
Cycle 0: max grad = 6.519455e+02 ; sigma = 0.000000e+00
Cycle 1: max grad = 1.062914e-05 ; sigma = 5.863399e-11
Product_state fixed-point CI iteration converged after 1 cycles
Entering product-state fixed-point CI iteration
Cycle 0: max grad = 6.519406e+02 ; sigma = 0.000000e+00
Cycle 1: max grad = 1.032171e-05 ; sigma = 5.903900e-11
Product_state fixed-point CI iteration converged after 1 cycles
Entering product-state fixed-point CI iteration
Cycle 0: max grad = 6.519167e+02 ; sigma = 0.000000e+00
Cycle 1: max grad = 8.004020e-06 ; sigma = 6.116352e-11
Product_state fixed-point CI iteration converged after 1 cycles
Entering product-state fixed-point CI iteration
Cycle 0: max grad = 3.287914e+02 ; sigma = 0.000000e+00
Cycle 1: max grad = 1.825784e-11 ; sigma = 0.000000e+00
Product_state fixed-point CI iteration converged after 1 cycles
Entering product-state fixed-point CI iteration
Cycle 0: max grad = 5.986986e+02 ; sigma = 0.000000e+00
Cycle 1: max grad = 1.566737e-06 ; sigma = 9.245582e-11
Product_state fixed-point CI iteration converged after 1 cycles
Entering product-state fixed-point CI iteration
Cycle 0: max grad = 3.761732e+02 ; sigma = 0.000000e+00
Cycle 1: max grad = 1.191430e-06 ; sigma = 6.604495e-11
Product_state fixed-point CI iteration converged after 1 cycles
Entering product-state fixed-point CI iteration
Cycle 0: max grad = 3.646489e+02 ; sigma = 0.000000e+00
Cycle 1: max grad = 9.276633e-04 ; sigma = 1.180172e-03
Cycle 2: max grad = 3.664169e-05 ; sigma = 1.799088e-07
Cycle 3: max grad = 1.053622e-05 ; sigma = 1.055867e-11
Product_state fixed-point CI iteration converged after 3 cycles
Entering product-state fixed-point CI iteration
Cycle 0: max grad = 3.634443e+02 ; sigma = 0.000000e+00
Cycle 1: max grad = 1.830280e-04 ; sigma = 1.215504e-03
Cycle 2: max grad = 1.614442e-06 ; sigma = 4.569056e-07
Cycle 3: max grad = 1.607118e-06 ; sigma = 2.146905e-11
Product_state fixed-point CI iteration converged after 3 cycles
Entering product-state fixed-point CI iteration
Cycle 0: max grad = 5.543843e+02 ; sigma = 0.000000e+00
Cycle 1: max grad = 4.216394e-04 ; sigma = 3.284839e-11
Cycle 2: max grad = 2.279668e-05 ; sigma = 8.526513e-14
Product_state fixed-point CI iteration converged after 2 cycles
Entering product-state fixed-point CI iteration
Cycle 0: max grad = 3.287733e+02 ; sigma = 0.000000e+00
Cycle 1: max grad = 1.709617e-11 ; sigma = 3.197442e-14
Product_state fixed-point CI iteration converged after 1 cycles
Entering product-state fixed-point CI iteration
Cycle 0: max grad = 5.984659e+02 ; sigma = 0.000000e+00
Cycle 1: max grad = 8.125631e-07 ; sigma = 9.057288e-11
Product_state fixed-point CI iteration converged after 1 cycles
Entering product-state fixed-point CI iteration
Cycle 0: max grad = 3.761488e+02 ; sigma = 0.000000e+00
Cycle 1: max grad = 1.174191e-06 ; sigma = 8.444800e-11
Product_state fixed-point CI iteration converged after 1 cycles
Entering product-state fixed-point CI iteration
Cycle 0: max grad = 5.544098e+02 ; sigma = 0.000000e+00
Cycle 1: max grad = 2.550809e-04 ; sigma = 1.431940e-03
Cycle 2: max grad = 5.806554e-06 ; sigma = 5.088423e-07
Cycle 3: max grad = 2.038540e-06 ; sigma = 3.426592e-10
Cycle 4: max grad = 1.222658e-06 ; sigma = 4.312994e-12
Product_state fixed-point CI iteration converged after 4 cycles
Entering product-state fixed-point CI iteration
Cycle 0: max grad = 3.599047e+02 ; sigma = 0.000000e+00
Cycle 1: max grad = 1.677638e-04 ; sigma = 1.541943e-03
Cycle 2: max grad = 1.357152e-06 ; sigma = 2.170446e-07
Cycle 3: max grad = 1.279168e-06 ; sigma = 1.745804e-11
Product_state fixed-point CI iteration converged after 3 cycles
Entering product-state fixed-point CI iteration
Cycle 0: max grad = 3.286135e+02 ; sigma = 0.000000e+00
Cycle 1: max grad = 3.447805e-04 ; sigma = 2.374634e-11
Cycle 2: max grad = 3.415726e-05 ; sigma = 1.918465e-13
Product_state fixed-point CI iteration converged after 2 cycles
Entering product-state fixed-point CI iteration
Cycle 0: max grad = 3.287632e+02 ; sigma = 0.000000e+00
Cycle 1: max grad = 1.655858e-11 ; sigma = 1.776357e-14
Product_state fixed-point CI iteration converged after 1 cycles
Entering product-state fixed-point CI iteration
Cycle 0: max grad = 5.984260e+02 ; sigma = 0.000000e+00
Cycle 1: max grad = 2.459361e-07 ; sigma = 7.783285e-11
Product_state fixed-point CI iteration converged after 1 cycles
Entering product-state fixed-point CI iteration
Cycle 0: max grad = 3.761441e+02 ; sigma = 0.000000e+00
Cycle 1: max grad = 9.622626e-07 ; sigma = 9.220003e-11
Product_state fixed-point CI iteration converged after 1 cycles
Entering product-state fixed-point CI iteration
Cycle 0: max grad = 5.546404e+02 ; sigma = 0.000000e+00
Cycle 1: max grad = 2.280109e-04 ; sigma = 1.484257e-03
Cycle 2: max grad = 2.636977e-06 ; sigma = 8.707150e-07
Cycle 3: max grad = 1.821527e-06 ; sigma = 8.616965e-10
Cycle 4: max grad = 9.944926e-07 ; sigma = 7.915446e-12
Product_state fixed-point CI iteration converged after 4 cycles
Entering product-state fixed-point CI iteration
Cycle 0: max grad = 3.591805e+02 ; sigma = 0.000000e+00
Cycle 1: max grad = 1.648544e-04 ; sigma = 1.608640e-03
Cycle 2: max grad = 1.123348e-06 ; sigma = 1.826402e-07
Cycle 3: max grad = 1.064005e-06 ; sigma = 1.648104e-11
Product_state fixed-point CI iteration converged after 3 cycles
Entering product-state fixed-point CI iteration
Cycle 0: max grad = 5.561880e+02 ; sigma = 0.000000e+00
Cycle 1: max grad = 4.730825e-04 ; sigma = 2.194156e-11
Cycle 2: max grad = 1.925936e-05 ; sigma = 1.207923e-13
Product_state fixed-point CI iteration converged after 2 cycles
Entering product-state fixed-point CI iteration
Cycle 0: max grad = 3.287611e+02 ; sigma = 0.000000e+00
Cycle 1: max grad = 1.646074e-11 ; sigma = 1.776357e-14
Product_state fixed-point CI iteration converged after 1 cycles
Entering product-state fixed-point CI iteration
Cycle 0: max grad = 5.985572e+02 ; sigma = 0.000000e+00
Cycle 1: max grad = 8.280600e-07 ; sigma = 1.220002e-11
Product_state fixed-point CI iteration converged after 1 cycles
Entering product-state fixed-point CI iteration
Cycle 0: max grad = 3.761585e+02 ; sigma = 0.000000e+00
Cycle 1: max grad = 2.099964e-06 ; sigma = 7.364775e-11
Product_state fixed-point CI iteration converged after 1 cycles
Entering product-state fixed-point CI iteration
Cycle 0: max grad = 5.539386e+02 ; sigma = 0.000000e+00
Cycle 1: max grad = 3.212769e-04 ; sigma = 1.329262e-03
Cycle 2: max grad = 1.628858e-05 ; sigma = 9.445721e-08
Cycle 3: max grad = 4.720480e-06 ; sigma = 1.849543e-11
Product_state fixed-point CI iteration converged after 3 cycles
Entering product-state fixed-point CI iteration
Cycle 0: max grad = 3.613374e+02 ; sigma = 0.000000e+00
Cycle 1: max grad = 1.737208e-04 ; sigma = 1.409890e-03
Cycle 2: max grad = 1.370336e-06 ; sigma = 2.990495e-07
Cycle 3: max grad = 1.323269e-06 ; sigma = 1.892886e-11
Product_state fixed-point CI iteration converged after 3 cycles
Entering product-state fixed-point CI iteration
Cycle 0: max grad = 3.286169e+02 ; sigma = 0.000000e+00
Cycle 1: max grad = 5.471848e-04 ; sigma = 2.754064e-11
Cycle 2: max grad = 6.640828e-06 ; sigma = 1.421085e-13
Product_state fixed-point CI iteration converged after 2 cycles
Entering product-state fixed-point CI iteration
Cycle 0: max grad = 3.287672e+02 ; sigma = 0.000000e+00
Cycle 1: max grad = 1.676028e-11 ; sigma = 1.101341e-13
Product_state fixed-point CI iteration converged after 1 cycles
Entering product-state fixed-point CI iteration
Cycle 0: max grad = 3.761929e+02 ; sigma = 0.000000e+00
Cycle 1: max grad = 1.247132e-06 ; sigma = 6.887291e-11
Product_state fixed-point CI iteration converged after 1 cycles
Entering product-state fixed-point CI iteration
Cycle 0: max grad = 5.530033e+02 ; sigma = 0.000000e+00
Cycle 1: max grad = 4.361633e-04 ; sigma = 1.080736e-11
Cycle 2: max grad = 1.930764e-05 ; sigma = 2.131628e-14
Product_state fixed-point CI iteration converged after 2 cycles
Entering product-state fixed-point CI iteration
Cycle 0: max grad = 3.287813e+02 ; sigma = 0.000000e+00
Cycle 1: max grad = 1.758316e-11 ; sigma = 1.065814e-14
Product_state fixed-point CI iteration converged after 1 cycles
LASSCF state-average energy = -3971.8901852523
LASSCF state 0 energy = -3971.8901852523
LASSCF state 1 energy = -3971.89049467751
LASSCF state 2 energy = -3971.89062733986
LASSCF state 3 energy = -3971.89058311563
LASSCF state 4 energy = -3971.89036204611
LASSCF state 5 energy = -3969.48093908276
LASSCF state 6 energy = -3970.98995513768
LASSCF state 7 energy = -3969.56927764107
LASSCF state 8 energy = -3971.51229990126
LASSCF state 9 energy = -3969.35154310363
LASSCF state 10 energy = -3971.64263382626
LASSCF state 11 energy = -3969.48199401442
LASSCF state 12 energy = -3970.99011278572
LASSCF state 13 energy = -3969.56971596372
LASSCF state 14 energy = -3971.5128970515
LASSCF state 15 energy = -3969.3522756948
LASSCF state 16 energy = -3971.6431247517
LASSCF state 17 energy = -3969.48258018069
LASSCF state 18 energy = -3970.9901443395
LASSCF state 19 energy = -3969.56980395125
LASSCF state 20 energy = -3971.51302003567
LASSCF state 21 energy = -3969.35242468793
LASSCF state 22 energy = -3971.64322411905
LASSCF state 23 energy = -3969.48269742185
LASSCF state 24 energy = -3970.99004970238
LASSCF state 25 energy = -3969.56954031221
LASSCF state 26 energy = -3971.51265466075
LASSCF state 27 energy = -3969.35198011903
LASSCF state 28 energy = -3971.64292719396
LASSCF state 29 energy = -3969.48234570627
LASSCF state 30 energy = -3969.56892890989
LASSCF state 31 energy = -3971.6422482803
LASSCF state 32 energy = -3969.48152512913
LASSI op_o0 memory check: 763129.441152 MB needed of 120058.01984 MB available (128000 MB max)
Symmetry analysis of 33 LAS rootspaces:
 ix            Energy  <S**2>  Neleca  Nelecb  Nelec   Wfnsym
  0  -3971.8901852523   4.750       6       5      11       A
  1  -3971.8904946775  11.750       6       5      11       A
  2  -3971.8906273399  14.750       6       5      11       A
  3  -3971.8905831156  13.750       6       5      11       A
  4  -3971.8903620461   8.750       6       5      11       A
  5  -3969.4809390828   5.750       6       5      11       A
  6  -3970.9899551377   3.750       6       5      11       A
  7  -3969.5692776411   8.750       6       5      11       A
  8  -3971.5122999013   3.750       6       5      11       A
  9  -3969.3515431036   9.750       6       5      11       A
 10  -3971.6426338263   8.750       6       5      11       A
 11  -3969.4819940144  14.750       6       5      11       A
 12  -3970.9901127857   8.750       6       5      11       A
 13  -3969.5697159637  13.750       6       5      11       A
 14  -3971.5128970515   8.750       6       5      11       A
 15  -3969.3522756948  14.750       6       5      11       A
 16  -3971.6431247517  13.750       6       5      11       A
 17  -3969.4825801807  19.750       6       5      11       A
 18  -3970.9901443395   9.750       6       5      11       A
 19  -3969.5698039513  14.750       6       5      11       A
 20  -3971.5130200357   9.750       6       5      11       A
 21  -3969.3524246879  15.750       6       5      11       A
 22  -3971.6432241191  14.750       6       5      11       A
 23  -3969.4826974219  20.750       6       5      11       A
 24  -3970.9900497024   6.750       6       5      11       A
 25  -3969.5695403122  11.750       6       5      11       A
 26  -3971.5126546607   6.750       6       5      11       A
 27  -3969.3519801190  12.750       6       5      11       A
 28  -3971.6429271940  11.750       6       5      11       A
 29  -3969.4823457063  17.750       6       5      11       A
 30  -3969.5689289099   4.750       6       5      11       A
 31  -3971.6422482803   4.750       6       5      11       A
 32  -3969.4815251291  10.750       6       5      11       A
Build + diag H matrix LASSI symmetry block 0
['neleca', 'nelecb', 'irrep'] = (6, 5, 0)
(33 rootspaces; 2673 states)
LASSI eigenvalues (2673 total):
 ix            Energy  <S**2>  Neleca  Nelecb  Wfnsym
  0  -3971.8913113450  24.750       6       5       A
  1  -3971.8913009132   2.914       6       5       A
  2  -3971.8912994873  14.089       6       5       A
  3  -3971.8912974212   4.878       6       5       A
  4  -3971.8912962360   7.120       6       5       A
  5  -3971.8717171105   0.750       6       5       A
  6  -3971.8716604230   3.750       6       5       A
  7  -3971.8715658087   8.750       6       5       A
  8  -3971.8714325983  15.750       6       5       A
  9  -3971.8712599765  24.750       6       5       A
 10  -3971.8703676635   0.840       6       5       A
 11  -3971.8703523114   3.693       6       5       A
 12  -3971.8703299648   8.722       6       5       A
 13  -3971.8702963918  15.746       6       5       A
 14  -3971.8702488577  24.750       6       5       A
 15  -3971.8472863850  24.750       6       5       A
 16  -3971.8469378329  15.750       6       5       A
 17  -3971.8466626985   8.750       6       5       A
 18  -3971.8464640708   3.750       6       5       A
 19  -3971.8463442212   0.750       6       5       A
 20  -3971.8246021238  24.750       6       5       A
 21  -3971.8245820423  15.749       6       5       A
 22  -3971.8245653307   8.745       6       5       A
 23  -3971.8245528789   3.734       6       5       A
 24  -3971.8245454825   0.773       6       5       A
 25  -3971.6435927824  24.750       6       5       A
 26  -3971.6429000865  15.750       6       5       A
 27  -3971.6423910881   8.750       6       5       A
 28  -3971.6420437517   3.750       6       5       A
 29  -3971.6418418922   0.750       6       5       A
 30  -3971.6416932889  24.750       6       5       A
 31  -3971.6405322060  15.750       6       5       A
 32  -3971.6396229482   8.750       6       5       A
 33  -3971.6389700874   3.750       6       5       A
 34  -3971.6385769877   0.750       6       5       A
 35  -3971.6357250807  24.750       6       5       A
 36  -3971.6345301649  15.750       6       5       A
 37  -3971.6335909307   8.750       6       5       A
 38  -3971.6329150274   3.750       6       5       A
 39  -3971.6325075437   0.750       6       5       A
 40  -3971.6269246559  24.750       6       5       A
 41  -3971.6265054805  15.750       6       5       A
 42  -3971.6261455158   8.750       6       5       A
 43  -3971.6258695476   3.750       6       5       A
 44  -3971.6256962605   0.750       6       5       A
 45  -3971.6008157479  24.750       6       5       A
 46  -3971.5994920640  15.750       6       5       A
 47  -3971.5984581201   8.750       6       5       A
 48  -3971.5977171443   3.750       6       5       A
 49  -3971.5972715518   0.750       6       5       A
 50  -3971.5140207150  15.750       6       5       A
 51  -3971.5133250208   8.750       6       5       A
 52  -3971.5128692527   3.750       6       5       A
 53  -3971.5126110471   0.750       6       5       A
 54  -3971.5119961851  15.750       6       5       A
 55  -3971.5115140643   8.750       6       5       A
 56  -3971.5115049308  15.750       6       5       A
 57  -3971.5111849262   3.750       6       5       A
 58  -3971.5109922706   0.750       6       5       A
 59  -3971.5102220880   8.750       6       5       A
 60  -3971.5100552696  15.750       6       5       A
 61  -3971.5095248721  15.750       6       5       A
 62  -3971.5094259714   8.750       6       5       A
 63  -3971.5093499329   3.750       6       5       A
 64  -3971.5089930769   3.750       6       5       A
 65  -3971.5088461301   0.750       6       5       A
 66  -3971.5088212454   8.750       6       5       A
 67  -3971.5087399700   0.750       6       5       A
 68  -3971.5083345020   3.750       6       5       A
 69  -3971.5080481169   0.750       6       5       A
 70  -3971.5076137212  15.750       6       5       A
 71  -3971.5065443961   8.750       6       5       A
 72  -3971.5057483943   3.750       6       5       A
 73  -3971.5055177049  15.750       6       5       A
 74  -3971.5052555600   0.750       6       5       A
 75  -3971.5042087125   8.750       6       5       A
 76  -3971.5035259512  15.750       6       5       A
 77  -3971.5033169222   3.750       6       5       A
 78  -3971.5028007823   0.750       6       5       A
 79  -3971.5027498322   8.750       6       5       A
 80  -3971.5022100916   3.750       6       5       A
 81  -3971.5018914431   0.750       6       5       A
 82  -3971.5016692131  15.750       6       5       A
 83  -3971.5005722389   8.750       6       5       A
 84  -3971.4997600495   3.750       6       5       A
 85  -3971.4992589506   0.750       6       5       A
 86  -3971.4974708000  15.750       6       5       A
 87  -3971.4968666646   8.750       6       5       A
 88  -3971.4964230479   3.750       6       5       A
 89  -3971.4961533765   0.750       6       5       A
 90  -3971.4959103283  15.750       6       5       A
 91  -3971.4955364293   8.750       6       5       A
 92  -3971.4953105940   3.750       6       5       A
 93  -3971.4951842062   0.750       6       5       A
 94  -3971.4944085038  15.750       6       5       A
 95  -3971.4942820093  15.750       6       5       A
 96  -3971.4937445978   8.750       6       5       A
 97  -3971.4935536432  15.750       6       5       A
 98  -3971.4934915984   8.750       6       5       A
 99  -3971.4932390706   3.750       6       5       A
Remaining 2573 eigenvalues truncated; increase verbosity to print them all
Natural-orbital analysis for state(s) [0, 1, 2, 3, 4]
LASSI op_o0 memory check: 763129.441152 MB needed of 116713.906176 MB available (128000 MB max)
Delocalized natural orbitals do not reflect LAS fragmentation
Natural occ [1.98705573 1.02999441 1.00766986 1.00652658 1.00119071 0.99778135
 0.99309418 0.9875505  0.98633466 0.96397128 0.01195272 0.0042265
 0.00406965 0.00389673 0.00347711 0.00229321 0.00228676 0.00227083
 0.00224569 0.00211156]
Natural orbital (expansion on AOs) in CAS space
               #1        #2        #3        #4        #5       
0 O 1s          -0.00011  -0.00021   0.00009   0.00030  -0.00026
0 O 2s           0.00160   0.00115  -0.00046   0.00178   0.00133
0 O 3s           0.00057   0.00042  -0.00019   0.00043   0.00049
0 O 4s           0.00479   0.00440  -0.00055  -0.00243   0.00434
0 O 2px          0.00476  -0.00002  -0.00003   0.00555  -0.00045
0 O 2py          0.00048  -0.00154   0.00161   0.00141  -0.00207
0 O 2pz          0.00216   0.00115  -0.00148  -0.00209   0.00139
0 O 3px          0.00568   0.00019   0.00017   0.00667  -0.00027
0 O 3py          0.00040  -0.00162   0.00159   0.00143  -0.00226
0 O 3pz          0.00283   0.00128  -0.00165  -0.00251   0.00142
0 O 4px          0.00790  -0.00039  -0.00039   0.00692  -0.00145
0 O 4py          0.00001  -0.00365   0.00379   0.00264  -0.00411
0 O 4pz          0.00398   0.00197  -0.00352  -0.00154   0.00313
0 O 3dxy         0.00012   0.00002  -0.00005   0.00003  -0.00000
0 O 3dyz         0.00007   0.00002   0.00001   0.00006   0.00002
0 O 3dz^2       -0.00003   0.00002  -0.00002  -0.00008  -0.00000
0 O 3dxz        -0.00004   0.00002   0.00002   0.00001   0.00006
0 O 3dx2-y2      0.00004   0.00003  -0.00003  -0.00006   0.00002
0 O 4dxy         0.00026  -0.00016  -0.00010  -0.00018  -0.00033
0 O 4dyz         0.00011   0.00021   0.00002   0.00025   0.00041
0 O 4dz^2       -0.00016  -0.00016   0.00011  -0.00016  -0.00023
0 O 4dxz         0.00015  -0.00001  -0.00004   0.00037   0.00020
0 O 4dx2-y2     -0.00017  -0.00002   0.00005  -0.00016  -0.00020
0 O 4f-3         0.00003   0.00003  -0.00004  -0.00000   0.00007
0 O 4f-2         0.00003   0.00000  -0.00003  -0.00006  -0.00003
0 O 4f-1        -0.00001   0.00003  -0.00001   0.00005   0.00007
0 O 4f+0         0.00001   0.00001   0.00002   0.00006   0.00003
0 O 4f+1        -0.00001   0.00000   0.00001  -0.00003  -0.00001
0 O 4f+2         0.00000  -0.00001   0.00003   0.00009   0.00003
0 O 4f+3         0.00003  -0.00001  -0.00003  -0.00005  -0.00007
1 O 1s           0.00030   0.00007   0.00018   0.00018  -0.00009
1 O 2s           0.00691  -0.00833  -0.00079  -0.00210  -0.02323
1 O 3s           0.00194  -0.00240  -0.00037  -0.00070  -0.00670
1 O 4s           0.01119  -0.01651  -0.00419  -0.00659  -0.03981
1 O 2px         -0.00521  -0.00824   0.00557  -0.00381  -0.01509
1 O 2py         -0.00726  -0.00475   0.00841   0.00690  -0.00210
1 O 2pz         -0.00491   0.00901  -0.00299  -0.00897   0.01884
1 O 3px         -0.00590  -0.01083   0.00725  -0.00476  -0.01943
1 O 3py         -0.00814  -0.00611   0.01015   0.00855  -0.00383
1 O 3pz         -0.00596   0.01193  -0.00397  -0.01109   0.02439
1 O 4px         -0.01107  -0.01200   0.00592  -0.00439  -0.02085
1 O 4py         -0.01203  -0.00804   0.01170   0.00629  -0.00516
1 O 4pz         -0.00703   0.01324  -0.00250  -0.01372   0.02704
1 O 3dxy         0.00024  -0.00001  -0.00030  -0.00046  -0.00036
1 O 3dyz        -0.00086  -0.00007   0.00038   0.00021   0.00040
1 O 3dz^2       -0.00066   0.00023  -0.00002  -0.00055   0.00033
1 O 3dxz         0.00002  -0.00042   0.00001  -0.00011  -0.00089
1 O 3dx2-y2      0.00051   0.00032  -0.00026   0.00013   0.00030
1 O 4dxy         0.00038  -0.00015  -0.00102  -0.00119  -0.00081
1 O 4dyz        -0.00243  -0.00020   0.00095   0.00053   0.00107
1 O 4dz^2       -0.00268   0.00056  -0.00001  -0.00193   0.00065
1 O 4dxz        -0.00055  -0.00103   0.00030   0.00001  -0.00197
1 O 4dx2-y2      0.00215   0.00107  -0.00107   0.00086   0.00098
1 O 4f-3         0.00024   0.00013  -0.00023   0.00005   0.00018
1 O 4f-2        -0.00013  -0.00017   0.00016   0.00010  -0.00034
1 O 4f-1         0.00007   0.00016  -0.00008  -0.00032   0.00019
1 O 4f+0         0.00040  -0.00004  -0.00009   0.00008  -0.00008
1 O 4f+1        -0.00010   0.00013   0.00005   0.00004   0.00025
1 O 4f+2         0.00014  -0.00009  -0.00011  -0.00015  -0.00023
1 O 4f+3        -0.00006   0.00004   0.00010   0.00023   0.00012
2 C 1s          -0.00026   0.00016   0.00029   0.00043   0.00060
2 C 2s          -0.00604   0.00107   0.00415   0.00506   0.00777
2 C 3s          -0.00886  -0.00164   0.00349   0.00778   0.00320
2 C 2px         -0.01694  -0.00087   0.00606  -0.00311   0.00554
2 C 2py          0.00308  -0.00399  -0.00257  -0.00466  -0.01202
2 C 2pz         -0.00532  -0.00123  -0.00100  -0.00976  -0.00518
2 C 3px         -0.01325   0.00029   0.00170  -0.00445   0.00308
2 C 3py         -0.00037  -0.00382   0.00311  -0.00180  -0.00701
2 C 3pz         -0.00496  -0.00129   0.00210  -0.00532  -0.00346
2 C 3dxy         0.00216   0.00012  -0.00061   0.00116  -0.00055
2 C 3dyz         0.00083  -0.00031   0.00020   0.00136  -0.00013
2 C 3dz^2        0.00092  -0.00131   0.00065   0.00108  -0.00242
2 C 3dxz        -0.00031   0.00106  -0.00055  -0.00029   0.00210
2 C 3dx2-y2     -0.00063  -0.00207   0.00144   0.00035  -0.00343
3 H 1s           0.00136  -0.00464   0.00206   0.00226  -0.00935
3 H 2s           0.00132  -0.00528   0.00201   0.00316  -0.01140
3 H 2px         -0.00050   0.00001   0.00015   0.00003   0.00025
3 H 2py          0.00000  -0.00013  -0.00015  -0.00007  -0.00031
3 H 2pz          0.00000  -0.00009  -0.00009  -0.00027  -0.00024
4 O 1s           0.00022   0.00009   0.00002  -0.00005  -0.00004
4 O 2s          -0.00048  -0.00665  -0.00091  -0.00986  -0.02786
4 O 3s          -0.00027  -0.00194  -0.00031  -0.00270  -0.00779
4 O 4s          -0.00309  -0.01058  -0.00173  -0.01492  -0.04120
4 O 2px          0.00045  -0.00898  -0.00820   0.00490  -0.00308
4 O 2py          0.00058  -0.00004  -0.00663   0.01737   0.02966
4 O 2pz         -0.00002  -0.00065   0.00350  -0.00701  -0.02108
4 O 3px          0.00064  -0.01104  -0.01028   0.00629  -0.00300
4 O 3py          0.00045  -0.00010  -0.00881   0.02264   0.03805
4 O 3pz         -0.00008  -0.00102   0.00456  -0.00953  -0.02765
4 O 4px         -0.00084  -0.00931  -0.00893   0.00786   0.00204
4 O 4py          0.00411  -0.00007  -0.00746   0.02072   0.03588
4 O 4pz         -0.00136  -0.00118   0.00358  -0.00782  -0.02779
4 O 3dxy         0.00002  -0.00043  -0.00027  -0.00017  -0.00085
4 O 3dyz        -0.00002  -0.00005   0.00004  -0.00015  -0.00050
4 O 3dz^2        0.00001  -0.00018  -0.00012  -0.00015  -0.00036
4 O 3dxz        -0.00004   0.00023   0.00009  -0.00004   0.00038
4 O 3dx2-y2     -0.00006   0.00024   0.00028  -0.00043  -0.00029
4 O 4dxy        -0.00004  -0.00070  -0.00038  -0.00083  -0.00172
4 O 4dyz         0.00002   0.00028   0.00032  -0.00021  -0.00059
4 O 4dz^2       -0.00016  -0.00046  -0.00010  -0.00026  -0.00069
4 O 4dxz         0.00005   0.00070   0.00007   0.00011   0.00129
4 O 4dx2-y2      0.00004   0.00086   0.00117  -0.00147  -0.00095
4 O 4f-3        -0.00003   0.00018   0.00005   0.00014   0.00039
4 O 4f-2         0.00002  -0.00014  -0.00012   0.00006   0.00018
4 O 4f-1         0.00001  -0.00003   0.00001  -0.00011  -0.00029
4 O 4f+0         0.00001   0.00001   0.00003  -0.00005   0.00000
4 O 4f+1        -0.00001   0.00019   0.00008  -0.00001   0.00011
4 O 4f+2         0.00002  -0.00003   0.00006  -0.00015  -0.00038
4 O 4f+3         0.00004  -0.00016  -0.00024   0.00026   0.00026
5 O 1s          -0.00012   0.00022   0.00012  -0.00009  -0.00012
5 O 2s           0.00061   0.00085  -0.00067   0.00147   0.00215
5 O 3s           0.00023   0.00017  -0.00022   0.00043   0.00067
5 O 4s           0.00384  -0.00041  -0.00160   0.00384   0.00085
5 O 2px          0.00010  -0.00035  -0.00171   0.00121   0.00222
5 O 2py         -0.00134   0.00079   0.00150  -0.00059   0.00196
5 O 2pz          0.00070   0.00185   0.00149  -0.00266  -0.00283
5 O 3px          0.00031  -0.00034  -0.00197   0.00113   0.00240
5 O 3py         -0.00170   0.00098   0.00193  -0.00131   0.00193
5 O 3pz          0.00059   0.00226   0.00174  -0.00300  -0.00305
5 O 4px          0.00047  -0.00042  -0.00331   0.00260   0.00268
5 O 4py         -0.00214   0.00111   0.00171   0.00042   0.00401
5 O 4pz          0.00226   0.00322   0.00241  -0.00401  -0.00460
5 O 3dxy        -0.00000  -0.00003  -0.00005   0.00002   0.00001
5 O 3dyz         0.00002   0.00005  -0.00001   0.00002   0.00008
5 O 3dz^2       -0.00002  -0.00003  -0.00001  -0.00002   0.00001
5 O 3dxz         0.00001  -0.00001   0.00001   0.00006   0.00002
5 O 3dx2-y2      0.00000   0.00005   0.00001  -0.00003   0.00001
5 O 4dxy         0.00002  -0.00003   0.00014  -0.00010  -0.00051
5 O 4dyz         0.00016   0.00024   0.00007   0.00019   0.00052
5 O 4dz^2        0.00005   0.00011   0.00007  -0.00031  -0.00032
5 O 4dxz         0.00001   0.00007   0.00007  -0.00004   0.00016
5 O 4dx2-y2      0.00029   0.00021  -0.00012   0.00035   0.00051
5 O 4f-3        -0.00002  -0.00002  -0.00001  -0.00003  -0.00008
5 O 4f-2         0.00002   0.00006   0.00001   0.00001   0.00008
5 O 4f-1        -0.00000  -0.00002  -0.00000   0.00000  -0.00001
5 O 4f+0         0.00001   0.00000  -0.00002   0.00004   0.00004
5 O 4f+1        -0.00001  -0.00003   0.00000  -0.00004  -0.00008
5 O 4f+2         0.00001   0.00002   0.00006  -0.00002  -0.00006
5 O 4f+3         0.00002   0.00003  -0.00003   0.00005   0.00012
6 C 1s           0.00007   0.00040  -0.00015  -0.00007   0.00049
6 C 2s           0.00001   0.00563   0.00250   0.00111   0.00893
6 C 3s          -0.00351   0.00244   0.00583  -0.00034   0.00563
6 C 2px          0.00047   0.00610   0.00264   0.00611   0.01604
6 C 2py          0.00049  -0.00758  -0.00452   0.00094  -0.01111
6 C 2pz          0.00020   0.00022  -0.00095   0.00421   0.00242
6 C 3px         -0.00106   0.00008  -0.00236   0.00450   0.00549
6 C 3py          0.00246  -0.00205  -0.00306  -0.00216  -0.00959
6 C 3pz         -0.00075  -0.00012   0.00081   0.00325   0.00518
6 C 3dxy         0.00034  -0.00103  -0.00115   0.00100  -0.00024
6 C 3dyz        -0.00013   0.00054  -0.00034   0.00064   0.00265
6 C 3dz^2        0.00020  -0.00023   0.00003  -0.00072  -0.00162
6 C 3dxz         0.00016  -0.00001   0.00053  -0.00084  -0.00257
6 C 3dx2-y2     -0.00022  -0.00017  -0.00142   0.00287   0.00525
7 H 1s           0.00031  -0.00119   0.00169  -0.00631  -0.01402
7 H 2s          -0.00124  -0.00021   0.00318  -0.00468  -0.00982
7 H 2px          0.00011   0.00018   0.00016   0.00005   0.00028
7 H 2py          0.00003  -0.00019  -0.00006   0.00018  -0.00009
7 H 2pz         -0.00005  -0.00001  -0.00005   0.00003  -0.00004
8 O 1s          -0.00007  -0.00036  -0.00007  -0.00021  -0.00002
8 O 2s          -0.00876  -0.00732  -0.01256   0.00091   0.02478
8 O 3s          -0.00264  -0.00192  -0.00369   0.00033   0.00722
8 O 4s          -0.02114  -0.01045  -0.02065   0.00116   0.03969
8 O 2px          0.00510   0.00614   0.00705   0.00681  -0.01112
8 O 2py          0.00901  -0.01110   0.00646  -0.00250   0.01631
8 O 2pz         -0.00536   0.00979   0.00529  -0.00800  -0.01342
8 O 3px          0.00598   0.00826   0.00877   0.00826  -0.01487
8 O 3py          0.01030  -0.01447   0.00736  -0.00300   0.02203
8 O 3pz         -0.00597   0.01311   0.00699  -0.01029  -0.01822
8 O 4px          0.00477   0.00771   0.00798   0.00734  -0.01514
8 O 4py          0.01313  -0.01552   0.00688  -0.00468   0.02350
8 O 4pz         -0.01101   0.01151   0.00738  -0.01216  -0.01875
8 O 3dxy         0.00032  -0.00056   0.00032  -0.00029   0.00045
8 O 3dyz         0.00043  -0.00028   0.00014  -0.00007   0.00033
8 O 3dz^2       -0.00048   0.00003  -0.00014  -0.00065   0.00007
8 O 3dxz         0.00047   0.00025   0.00059  -0.00044  -0.00080
8 O 3dx2-y2      0.00097   0.00017   0.00067   0.00034  -0.00046
8 O 4dxy         0.00040  -0.00182   0.00098  -0.00090   0.00230
8 O 4dyz         0.00192  -0.00109   0.00047  -0.00019   0.00071
8 O 4dz^2       -0.00094   0.00029  -0.00008  -0.00264  -0.00019
8 O 4dxz         0.00101   0.00072   0.00149  -0.00201  -0.00267
8 O 4dx2-y2      0.00253   0.00067   0.00176   0.00109  -0.00164
8 O 4f-3         0.00054   0.00006   0.00027   0.00021   0.00001
8 O 4f-2         0.00010   0.00026   0.00021  -0.00014  -0.00046
8 O 4f-1        -0.00028   0.00017   0.00006  -0.00033  -0.00025
8 O 4f+0        -0.00001   0.00004  -0.00005   0.00023  -0.00013
8 O 4f+1        -0.00026  -0.00001  -0.00013   0.00006   0.00004
8 O 4f+2        -0.00053   0.00019  -0.00008  -0.00009  -0.00020
8 O 4f+3        -0.00015   0.00031  -0.00011   0.00017  -0.00054
9 O 1s          -0.00012   0.00022  -0.00012  -0.00009   0.00012
9 O 2s           0.00061   0.00085   0.00067   0.00147  -0.00215
9 O 3s           0.00023   0.00017   0.00022   0.00043  -0.00067
9 O 4s           0.00384  -0.00041   0.00160   0.00384  -0.00085
9 O 2px         -0.00015  -0.00081   0.00199   0.00186  -0.00298
9 O 2py         -0.00110   0.00125  -0.00179  -0.00124  -0.00120
9 O 2pz         -0.00104  -0.00139   0.00050   0.00197  -0.00254
9 O 3px          0.00007  -0.00091   0.00230   0.00185  -0.00321
9 O 3py         -0.00146   0.00154  -0.00225  -0.00203  -0.00112
9 O 3pz         -0.00109  -0.00173   0.00054   0.00210  -0.00269
9 O 4px         -0.00025  -0.00124   0.00377   0.00361  -0.00398
9 O 4py         -0.00142   0.00193  -0.00218  -0.00059  -0.00271
9 O 4pz         -0.00280  -0.00255   0.00086   0.00311  -0.00461
9 O 3dxy        -0.00000  -0.00003   0.00004   0.00003   0.00000
9 O 3dyz        -0.00001  -0.00003  -0.00002  -0.00001   0.00008
9 O 3dz^2       -0.00001  -0.00004  -0.00001  -0.00001   0.00002
9 O 3dxz        -0.00002  -0.00003   0.00003  -0.00005   0.00002
9 O 3dx2-y2     -0.00001   0.00003  -0.00001  -0.00005   0.00001
9 O 4dxy        -0.00002  -0.00009  -0.00012  -0.00011   0.00052
9 O 4dyz        -0.00024  -0.00030   0.00010  -0.00008   0.00031
9 O 4dz^2       -0.00003   0.00001  -0.00003  -0.00033   0.00034
9 O 4dxz        -0.00008  -0.00010  -0.00004  -0.00025   0.00059
9 O 4dx2-y2      0.00022   0.00011   0.00015   0.00028  -0.00029
9 O 4f-3        -0.00002  -0.00002  -0.00001  -0.00003   0.00010
9 O 4f-2        -0.00000  -0.00004   0.00001   0.00001   0.00004
9 O 4f-1         0.00002   0.00001  -0.00001   0.00002  -0.00003
9 O 4f+0         0.00000   0.00002  -0.00001   0.00000  -0.00004
9 O 4f+1        -0.00001  -0.00003  -0.00003  -0.00006   0.00011
9 O 4f+2        -0.00003  -0.00005   0.00003  -0.00002   0.00006
9 O 4f+3         0.00001  -0.00001   0.00005   0.00005  -0.00010
10 O 1s          0.00022   0.00009  -0.00002  -0.00005   0.00004
10 O 2s         -0.00048  -0.00665   0.00091  -0.00986   0.02786
10 O 3s         -0.00027  -0.00194   0.00031  -0.00270   0.00779
10 O 4s         -0.00309  -0.01058   0.00173  -0.01492   0.04120
10 O 2px         0.00046  -0.00845   0.00909   0.00730  -0.00394
10 O 2py         0.00057  -0.00056   0.00574   0.01498  -0.02265
10 O 2pz         0.00005   0.00304   0.00280   0.00986  -0.02838
10 O 3px         0.00066  -0.01034   0.01147   0.00952  -0.00613
10 O 3py         0.00043  -0.00080   0.00762   0.01941  -0.02893
10 O 3pz         0.00002   0.00392   0.00381   0.01325  -0.03670
10 O 4px        -0.00028  -0.00863   0.00985   0.01049  -0.01093
10 O 4py         0.00354  -0.00075   0.00654   0.01809  -0.02700
10 O 4pz         0.00261   0.00361   0.00290   0.01072  -0.03486
10 O 3dxy        0.00001  -0.00031   0.00022  -0.00012   0.00052
10 O 3dyz        0.00003   0.00014  -0.00000   0.00035  -0.00081
10 O 3dz^2      -0.00000   0.00004   0.00004  -0.00005  -0.00021
10 O 3dxz        0.00006  -0.00043   0.00027   0.00006   0.00055
10 O 3dx2-y2    -0.00004   0.00017  -0.00022  -0.00035   0.00023
10 O 4dxy       -0.00001  -0.00048   0.00040  -0.00066   0.00103
10 O 4dyz        0.00005  -0.00016   0.00045   0.00088  -0.00133
10 O 4dz^2      -0.00010  -0.00008   0.00013   0.00004  -0.00050
10 O 4dxz       -0.00013  -0.00121   0.00055   0.00001   0.00146
10 O 4dx2-y2     0.00002   0.00052  -0.00097  -0.00133   0.00107
10 O 4f-3       -0.00002   0.00017  -0.00009   0.00006  -0.00016
10 O 4f-2       -0.00001   0.00002  -0.00013  -0.00021   0.00046
10 O 4f-1        0.00003  -0.00006   0.00001  -0.00010   0.00021
10 O 4f+0        0.00001  -0.00016   0.00010   0.00000   0.00015
10 O 4f+1       -0.00000   0.00011  -0.00009  -0.00010   0.00026
10 O 4f+2       -0.00004   0.00019  -0.00009   0.00002  -0.00024
10 O 4f+3        0.00003  -0.00010   0.00019   0.00024  -0.00026
11 C 1s          0.00007   0.00040   0.00015  -0.00007  -0.00049
11 C 2s          0.00001   0.00563  -0.00250   0.00111  -0.00893
11 C 3s         -0.00351   0.00244  -0.00583  -0.00034  -0.00563
11 C 2px         0.00042   0.00551  -0.00262   0.00476  -0.01433
11 C 2py         0.00054  -0.00699   0.00450   0.00229   0.00940
11 C 2pz        -0.00018  -0.00393   0.00107  -0.00530   0.00964
11 C 3px        -0.00072   0.00003   0.00261   0.00336  -0.00349
11 C 3py         0.00212  -0.00200   0.00281  -0.00102   0.00760
11 C 3pz         0.00166  -0.00047   0.00094  -0.00482   0.00889
11 C 3dxy        0.00036  -0.00106   0.00085   0.00065   0.00132
11 C 3dyz       -0.00003  -0.00004  -0.00088  -0.00115   0.00254
11 C 3dz^2       0.00024  -0.00028  -0.00055  -0.00133   0.00351
11 C 3dxz        0.00011  -0.00036   0.00028  -0.00023   0.00040
11 C 3dx2-y2    -0.00021  -0.00030   0.00136   0.00270  -0.00482
12 H 1s          0.00031  -0.00119  -0.00169  -0.00631   0.01402
12 H 2s         -0.00124  -0.00021  -0.00318  -0.00468   0.00982
12 H 2px         0.00012   0.00017  -0.00016   0.00004  -0.00028
12 H 2py         0.00002  -0.00018   0.00006   0.00018   0.00008
12 H 2pz         0.00002  -0.00009   0.00001   0.00001   0.00006
13 O 1s          0.00030   0.00007  -0.00018   0.00018   0.00009
13 O 2s          0.00691  -0.00833   0.00079  -0.00210   0.02323
13 O 3s          0.00194  -0.00240   0.00037  -0.00070   0.00670
13 O 4s          0.01119  -0.01651   0.00419  -0.00659   0.03981
13 O 2px        -0.00395  -0.01056  -0.00650  -0.00095   0.01973
13 O 2py        -0.00852  -0.00243  -0.00748   0.00404  -0.00253
13 O 2pz         0.00397  -0.00736  -0.00353   0.01120   0.01384
13 O 3px        -0.00436  -0.01390  -0.00845  -0.00122   0.02548
13 O 3py        -0.00968  -0.00304  -0.00896   0.00502  -0.00222
13 O 3pz         0.00489  -0.00972  -0.00445   0.01386   0.01825
13 O 4px        -0.00918  -0.01546  -0.00682  -0.00024   0.02761
13 O 4py        -0.01391  -0.00458  -0.01079   0.00213  -0.00160
13 O 4pz         0.00623  -0.01114  -0.00388   0.01557   0.02067
13 O 3dxy        0.00052  -0.00013   0.00037  -0.00043   0.00071
13 O 3dyz        0.00078  -0.00008   0.00015   0.00016   0.00037
13 O 3dz^2      -0.00016   0.00002   0.00014  -0.00050   0.00026
13 O 3dxz       -0.00029   0.00036   0.00006  -0.00032  -0.00065
13 O 3dx2-y2     0.00070   0.00043   0.00035   0.00009  -0.00041
13 O 4dxy        0.00117  -0.00042   0.00110  -0.00098   0.00160
13 O 4dyz        0.00252  -0.00022   0.00026   0.00047   0.00100
13 O 4dz^2      -0.00131   0.00009   0.00016  -0.00157   0.00072
13 O 4dxz       -0.00095   0.00078   0.00032  -0.00144  -0.00129
13 O 4dx2-y2     0.00280   0.00133   0.00133   0.00064  -0.00115
13 O 4f-3        0.00032   0.00012   0.00030  -0.00004  -0.00015
13 O 4f-2        0.00020   0.00007   0.00014  -0.00026  -0.00011
13 O 4f-1        0.00024   0.00002   0.00006  -0.00014   0.00007
13 O 4f+0       -0.00016  -0.00000  -0.00002  -0.00021   0.00007
13 O 4f+1       -0.00020   0.00014   0.00001  -0.00019  -0.00022
13 O 4f+2       -0.00002   0.00021   0.00004  -0.00006  -0.00036
13 O 4f+3       -0.00003   0.00014  -0.00006   0.00018  -0.00031
14 O 1s         -0.00011  -0.00021  -0.00009   0.00030   0.00026
14 O 2s          0.00160   0.00115   0.00046   0.00178  -0.00133
14 O 3s          0.00057   0.00042   0.00019   0.00043  -0.00049
14 O 4s          0.00479   0.00440   0.00055  -0.00243  -0.00434
14 O 2px         0.00401  -0.00039  -0.00044   0.00596   0.00090
14 O 2py         0.00123  -0.00117  -0.00114   0.00100   0.00163
14 O 2pz        -0.00316  -0.00147  -0.00181   0.00080   0.00173
14 O 3px         0.00471  -0.00023  -0.00068   0.00715   0.00074
14 O 3py         0.00138  -0.00120  -0.00109   0.00094   0.00179
14 O 3pz        -0.00406  -0.00167  -0.00191   0.00089   0.00185
14 O 4px         0.00651  -0.00105  -0.00073   0.00717   0.00241
14 O 4py         0.00140  -0.00299  -0.00267   0.00239   0.00315
14 O 4pz        -0.00583  -0.00271  -0.00439   0.00025   0.00361
14 O 3dxy        0.00009   0.00002   0.00004   0.00003  -0.00001
14 O 3dyz       -0.00008  -0.00004  -0.00002  -0.00001   0.00003
14 O 3dz^2      -0.00008   0.00001   0.00001  -0.00008  -0.00002
14 O 3dxz        0.00003  -0.00001   0.00003  -0.00003   0.00006
14 O 3dx2-y2     0.00003   0.00002   0.00003  -0.00008   0.00000
14 O 4dxy        0.00027  -0.00018   0.00012  -0.00011   0.00033
14 O 4dyz       -0.00006  -0.00005   0.00005  -0.00008   0.00012
14 O 4dz^2      -0.00014  -0.00020  -0.00007  -0.00005   0.00023
14 O 4dxz       -0.00009  -0.00012  -0.00004  -0.00040   0.00034
14 O 4dx2-y2    -0.00023  -0.00008  -0.00005  -0.00031   0.00035
14 O 4f-3        0.00002   0.00003   0.00001   0.00005  -0.00008
14 O 4f-2       -0.00004  -0.00000  -0.00004   0.00010  -0.00006
14 O 4f-1        0.00001   0.00002   0.00000   0.00006  -0.00005
14 O 4f+0        0.00001   0.00001   0.00003  -0.00001  -0.00002
14 O 4f+1       -0.00003  -0.00001  -0.00002   0.00002  -0.00001
14 O 4f+2       -0.00002   0.00003   0.00002  -0.00005  -0.00004
14 O 4f+3        0.00002   0.00000   0.00002  -0.00005   0.00005
15 C 1s         -0.00026   0.00016  -0.00029   0.00043  -0.00060
15 C 2s         -0.00604   0.00107  -0.00415   0.00506  -0.00777
15 C 3s         -0.00886  -0.00164  -0.00349   0.00778  -0.00320
15 C 2px        -0.01472  -0.00066  -0.00600  -0.00051  -0.00627
15 C 2py         0.00085  -0.00421   0.00251  -0.00726   0.01275
15 C 2pz         0.01037   0.00029   0.00143   0.00858   0.00001
15 C 3px        -0.01140   0.00049  -0.00118  -0.00290  -0.00363
15 C 3py        -0.00223  -0.00401  -0.00362  -0.00336   0.00757
15 C 3pz         0.00809   0.00007   0.00156   0.00563  -0.00044
15 C 3dxy        0.00159   0.00062   0.00084   0.00052  -0.00037
15 C 3dyz       -0.00141   0.00124   0.00062  -0.00193  -0.00201
15 C 3dz^2      -0.00006  -0.00043  -0.00026  -0.00003   0.00084
15 C 3dxz        0.00128  -0.00080  -0.00016   0.00075   0.00195
15 C 3dx2-y2    -0.00073  -0.00212  -0.00143   0.00003   0.00370
16 H 1s          0.00136  -0.00464  -0.00206   0.00226   0.00935
16 H 2s          0.00132  -0.00528  -0.00201   0.00316   0.01140
16 H 2px        -0.00048   0.00003  -0.00017   0.00010  -0.00029
16 H 2py        -0.00002  -0.00015   0.00016  -0.00014   0.00035
16 H 2pz         0.00014   0.00005   0.00000   0.00022  -0.00007
17 Fe 1s         0.00005  -0.00018  -0.00000   0.00064  -0.00000
17 Fe 2s         0.00020  -0.00051  -0.00000   0.00188  -0.00000
17 Fe 3s        -0.03040  -0.00172  -0.00000   0.00872  -0.00000
17 Fe 4s        -0.02073  -0.04437   0.00000   0.02848   0.00000
17 Fe 5s        -0.01000  -0.00495   0.00000  -0.00496   0.00000
17 Fe 6s         0.00436   0.00006  -0.00000   0.00426  -0.00000
17 Fe 7s        -0.03700  -0.00315   0.00000  -0.02552  -0.00000
17 Fe 2px       -0.00096  -0.00022   0.00002  -0.00004  -0.00000
17 Fe 2py        0.00022  -0.00060  -0.00002   0.00029   0.00000
17 Fe 2pz        0.00017  -0.00005   0.00011   0.00005  -0.00003
17 Fe 3px       -0.02685  -0.00598   0.00027  -0.00101  -0.00010
17 Fe 3py       -0.00135  -0.01648  -0.00027   0.00310   0.00010
17 Fe 3pz        0.00362  -0.00149   0.00191   0.00058  -0.00070
17 Fe 4px       -0.09667  -0.02999   0.00064  -0.00081   0.00045
17 Fe 4py        0.06815  -0.01648  -0.00064   0.07082  -0.00045
17 Fe 4pz        0.02337   0.00192   0.00448   0.01016   0.00317
17 Fe 5px        0.06154   0.03564  -0.00067   0.00050   0.00001
17 Fe 5py       -0.06232   0.06082   0.00067  -0.05823  -0.00001
17 Fe 5pz       -0.01756   0.00357  -0.00471  -0.00833   0.00008
17 Fe 6px       -0.00013   0.00025   0.00005  -0.00057   0.00003
17 Fe 6py        0.00248   0.00300  -0.00005   0.00192  -0.00003
17 Fe 6pz        0.00037   0.00039   0.00038   0.00035   0.00021
17 Fe 7px       -0.03371  -0.00208  -0.00123   0.00021  -0.00055
17 Fe 7py       -0.00828  -0.00762   0.00123  -0.01118   0.00055
17 Fe 7pz        0.00361  -0.00079  -0.00867  -0.00161  -0.00386
17 Fe 3dxy      -0.68965  -0.28499  -0.08048   0.36318   0.09728
17 Fe 3dyz       0.07231  -0.11189  -0.63921  -0.16418   0.05998
17 Fe 3dz^2      0.42562   0.31186  -0.13939   0.48981   0.16850
17 Fe 3dxz       0.08635  -0.03648  -0.09457   0.19386  -0.59840
17 Fe 3dx2-y2   -0.55937   0.52312  -0.10406  -0.10466  -0.07636
17 Fe 4dxy      -0.01021   0.00953   0.00380  -0.01195  -0.00612
17 Fe 4dyz       0.00067   0.00495   0.02430   0.00628  -0.00895
17 Fe 4dz^2      0.00780  -0.01423   0.00657  -0.01872  -0.01061
17 Fe 4dxz       0.00164   0.00048  -0.00139  -0.00684   0.03250
17 Fe 4dx2-y2   -0.00814  -0.01916   0.00325   0.00198   0.00334
17 Fe 5dxy      -0.00656   0.00120   0.00071  -0.00190  -0.00112
17 Fe 5dyz       0.00052   0.00093   0.00427   0.00112  -0.00202
17 Fe 5dz^2      0.00469  -0.00262   0.00122  -0.00328  -0.00194
17 Fe 5dxz       0.00098  -0.00006  -0.00050  -0.00112   0.00556
17 Fe 5dx2-y2   -0.00527  -0.00306   0.00053  -0.00000   0.00050
17 Fe 6dxy      -0.05454  -0.01186  -0.00091   0.01221   0.00019
17 Fe 6dyz       0.00719  -0.00400  -0.01710  -0.00316  -0.00426
17 Fe 6dz^2      0.02577   0.01305  -0.00157   0.01081   0.00033
17 Fe 6dxz       0.00427  -0.00082  -0.01097   0.00598  -0.00554
17 Fe 6dx2-y2   -0.04039   0.01700  -0.00398  -0.00997  -0.00139
17 Fe 4f-3       0.00024  -0.00005   0.00003   0.00009   0.00003
17 Fe 4f-2       0.00002  -0.00000   0.00001  -0.00006   0.00019
17 Fe 4f-1      -0.00010  -0.00021   0.00005  -0.00018  -0.00006
17 Fe 4f+0       0.00001  -0.00005  -0.00006  -0.00006   0.00001
17 Fe 4f+1      -0.00012  -0.00008   0.00001  -0.00003   0.00005
17 Fe 4f+2       0.00006  -0.00005  -0.00015  -0.00004   0.00003
17 Fe 4f+3      -0.00035  -0.00012  -0.00003   0.00005   0.00004
17 Fe 5f-3       0.00067  -0.00245   0.00038   0.00045   0.00009
17 Fe 5f-2       0.00037   0.00037   0.00066  -0.00023  -0.00002
17 Fe 5f-1      -0.00025  -0.00192   0.00055  -0.00062  -0.00003
17 Fe 5f+0       0.00003  -0.00045  -0.00097  -0.00025   0.00040
17 Fe 5f+1      -0.00028  -0.00067   0.00014   0.00001   0.00027
17 Fe 5f+2       0.00048  -0.00080  -0.00148  -0.00004  -0.00050
17 Fe 5f+3      -0.00267  -0.00136  -0.00016  -0.00009  -0.00009
17 Fe 5g-4       0.00136  -0.00011   0.00020   0.00009   0.00006
17 Fe 5g-3      -0.00028   0.00010   0.00097  -0.00000   0.00095
17 Fe 5g-2      -0.00079  -0.00067  -0.00028   0.00010  -0.00009
17 Fe 5g-1       0.00013  -0.00016  -0.00076  -0.00014  -0.00045
17 Fe 5g+0       0.00072   0.00049  -0.00002   0.00052   0.00049
17 Fe 5g+1       0.00031  -0.00010  -0.00078   0.00049  -0.00142
17 Fe 5g+2      -0.00072   0.00039  -0.00021  -0.00053  -0.00051
17 Fe 5g+3      -0.00013   0.00029  -0.00003  -0.00028   0.00058
17 Fe 5g+4      -0.00004  -0.00179   0.00020   0.00089   0.00031
18 O 1s         -0.00007  -0.00036   0.00007  -0.00021   0.00002
18 O 2s         -0.00876  -0.00732   0.01256   0.00091  -0.02478
18 O 3s         -0.00264  -0.00192   0.00369   0.00033  -0.00722
18 O 4s         -0.02114  -0.01045   0.02065   0.00116  -0.03969
18 O 2px         0.00671   0.00280  -0.00559   0.00863   0.00640
18 O 2py         0.00740  -0.00776  -0.00793  -0.00432  -0.01159
18 O 2pz         0.00601  -0.01373   0.00504   0.00485  -0.01986
18 O 3px         0.00778   0.00381  -0.00681   0.01063   0.00847
18 O 3py         0.00850  -0.01001  -0.00932  -0.00537  -0.01564
18 O 3pz         0.00668  -0.01829   0.00683   0.00643  -0.02687
18 O 4px         0.00809   0.00368  -0.00592   0.01019   0.00854
18 O 4py         0.00981  -0.01149  -0.00893  -0.00753  -0.01690
18 O 4pz         0.01243  -0.01696   0.00711   0.00795  -0.02784
18 O 3dxy        0.00036  -0.00039  -0.00043  -0.00028  -0.00013
18 O 3dyz       -0.00053   0.00028   0.00038   0.00037   0.00020
18 O 3dz^2      -0.00040   0.00033  -0.00005  -0.00062   0.00049
18 O 3dxz       -0.00082  -0.00035   0.00066  -0.00008  -0.00088
18 O 3dx2-y2     0.00065   0.00017  -0.00041   0.00046   0.00029
18 O 4dxy        0.00027  -0.00127  -0.00117  -0.00095  -0.00130
18 O 4dyz       -0.00205   0.00095   0.00123   0.00145   0.00033
18 O 4dz^2      -0.00118   0.00125  -0.00025  -0.00273   0.00192
18 O 4dxz       -0.00203  -0.00098   0.00153  -0.00002  -0.00304
18 O 4dx2-y2     0.00154   0.00072  -0.00109   0.00160   0.00098
18 O 4f-3        0.00032   0.00004  -0.00017   0.00020  -0.00008
18 O 4f-2       -0.00020  -0.00023   0.00015  -0.00008  -0.00036
18 O 4f-1       -0.00043   0.00033  -0.00001  -0.00012   0.00052
18 O 4f+0        0.00003   0.00016  -0.00020  -0.00037   0.00022
18 O 4f+1       -0.00053  -0.00001   0.00018  -0.00017  -0.00011
18 O 4f+2        0.00036  -0.00015  -0.00014  -0.00003  -0.00023
18 O 4f+3       -0.00004   0.00017   0.00013   0.00018   0.00031
19 Fe 1s         0.00009   0.00022   0.00000  -0.00084   0.00000
19 Fe 2s         0.00027   0.00064   0.00000  -0.00249   0.00000
19 Fe 3s         0.00165   0.00185   0.00000  -0.01272   0.00000
19 Fe 4s         0.01792   0.01781   0.00000  -0.04383  -0.00000
19 Fe 5s         0.00223   0.00320  -0.00000   0.00012  -0.00000
19 Fe 6s         0.00107   0.00156   0.00000  -0.00147   0.00000
19 Fe 7s         0.03503  -0.00332  -0.00000   0.01191   0.00000
19 Fe 2px        0.00002   0.00011  -0.00002   0.00138   0.00002
19 Fe 2py        0.00008   0.00001   0.00002   0.00027  -0.00002
19 Fe 2pz        0.00001  -0.00001  -0.00012  -0.00016   0.00011
19 Fe 3px       -0.00014   0.00471  -0.00001   0.03429   0.00053
19 Fe 3py       -0.00001  -0.00090   0.00001   0.00661  -0.00053
19 Fe 3pz        0.00002  -0.00080  -0.00010  -0.00392   0.00372
19 Fe 4px       -0.03670   0.00185  -0.00090   0.12159   0.00044
19 Fe 4py        0.02617  -0.01913   0.00090   0.03717  -0.00043
19 Fe 4pz        0.00892  -0.00297  -0.00634  -0.01197   0.00306
19 Fe 5px        0.02944  -0.01104   0.00026  -0.15266  -0.00181
19 Fe 5py       -0.01266   0.00814  -0.00025  -0.04007   0.00180
19 Fe 5pz       -0.00597   0.00272   0.00180   0.01597  -0.01273
19 Fe 6px       -0.00168  -0.00154  -0.00021  -0.00596  -0.00014
19 Fe 6py       -0.00055   0.00155   0.00021  -0.00099   0.00014
19 Fe 6pz        0.00016   0.00044  -0.00146   0.00070  -0.00099
19 Fe 7px       -0.01139   0.00291   0.00090   0.00207   0.00046
19 Fe 7py       -0.01557  -0.00519  -0.00090  -0.00121  -0.00046
19 Fe 7pz       -0.00059  -0.00115   0.00632  -0.00047   0.00327
19 Fe 3dxy      -0.00316   0.58225   0.08825  -0.31131  -0.10633
19 Fe 3dyz      -0.00343  -0.04569  -0.07563  -0.02328  -0.69607
19 Fe 3dz^2     -0.00812   0.04000   0.15283   0.47957  -0.18415
19 Fe 3dxz      -0.00852   0.14685  -0.67279   0.13017   0.02354
19 Fe 3dx2-y2    0.04211  -0.35667  -0.10613  -0.37686  -0.09538
19 Fe 4dxy      -0.00276  -0.06074  -0.01066   0.03741   0.01548
19 Fe 4dyz      -0.00021   0.00490   0.00355   0.00225   0.09587
19 Fe 4dz^2      0.00248  -0.00575  -0.01846  -0.05706   0.02681
19 Fe 4dxz       0.00024  -0.01599   0.07569  -0.01590  -0.00888
19 Fe 4dx2-y2   -0.00012   0.03910   0.01124   0.04815   0.01234
19 Fe 5dxy      -0.00086  -0.01224  -0.00206   0.00723   0.00307
19 Fe 5dyz      -0.00007   0.00097   0.00076   0.00048   0.01904
19 Fe 5dz^2      0.00092  -0.00096  -0.00357  -0.01087   0.00532
19 Fe 5dxz       0.00014  -0.00314   0.01469  -0.00294  -0.00175
19 Fe 5dx2-y2   -0.00025   0.00767   0.00219   0.00867   0.00245
19 Fe 6dxy      -0.00201   0.00794   0.00143  -0.00474   0.00187
19 Fe 6dyz      -0.00064  -0.00086   0.00204  -0.00119   0.00881
19 Fe 6dz^2      0.00214   0.00129   0.00249   0.01051   0.00323
19 Fe 6dxz      -0.00014   0.00215  -0.00767   0.00279  -0.00382
19 Fe 6dx2-y2    0.00277  -0.00454  -0.00080  -0.00565   0.00071
19 Fe 4f-3      -0.00004   0.00021   0.00003  -0.00029  -0.00010
19 Fe 4f-2      -0.00000  -0.00002  -0.00014   0.00002  -0.00041
19 Fe 4f-1      -0.00001  -0.00011   0.00003   0.00011   0.00004
19 Fe 4f+0      -0.00003  -0.00006   0.00021  -0.00011   0.00008
19 Fe 4f+1       0.00006   0.00005   0.00012   0.00041  -0.00011
19 Fe 4f+2       0.00001   0.00009  -0.00031   0.00011   0.00014
19 Fe 4f+3      -0.00005  -0.00035  -0.00008  -0.00022  -0.00005
19 Fe 5f-3      -0.00022   0.00207   0.00017  -0.00379  -0.00022
19 Fe 5f-2       0.00016  -0.00015  -0.00231   0.00062  -0.00113
19 Fe 5f-1      -0.00068  -0.00073   0.00036   0.00160   0.00008
19 Fe 5f+0      -0.00022  -0.00057   0.00250  -0.00102   0.00048
19 Fe 5f+1      -0.00006   0.00078   0.00111   0.00442  -0.00013
19 Fe 5f+2       0.00007   0.00100  -0.00315   0.00137   0.00009
19 Fe 5f+3      -0.00155  -0.00337  -0.00096  -0.00361  -0.00018
19 Fe 5g-4       0.00010  -0.00011  -0.00002  -0.00002  -0.00013
19 Fe 5g-3      -0.00002   0.00002  -0.00015  -0.00001  -0.00020
19 Fe 5g-2       0.00001  -0.00010   0.00006   0.00018  -0.00002
19 Fe 5g-1       0.00002  -0.00001   0.00002  -0.00014   0.00017
19 Fe 5g+0      -0.00001   0.00005   0.00000   0.00011   0.00006
19 Fe 5g+1       0.00002  -0.00002   0.00002   0.00011   0.00004
19 Fe 5g+2      -0.00006   0.00005  -0.00002   0.00005  -0.00012
19 Fe 5g+3      -0.00001  -0.00000  -0.00005   0.00002   0.00043
19 Fe 5g+4       0.00008  -0.00017  -0.00004   0.00025   0.00005
20 O 1s         -0.00008  -0.00014  -0.00001  -0.00005  -0.00032
20 O 2s          0.00084   0.00825  -0.01473  -0.01036   0.02659
20 O 3s          0.00022   0.00243  -0.00420  -0.00278   0.00754
20 O 4s          0.00096   0.01473  -0.02213  -0.01619   0.04263
20 O 2px        -0.00332   0.00936  -0.00683   0.01097  -0.01699
20 O 2py         0.00069  -0.00001  -0.00852  -0.00682   0.01182
20 O 2pz         0.00478   0.00176  -0.01025  -0.01582   0.03250
20 O 3px        -0.00432   0.01151  -0.00768   0.01466  -0.02248
20 O 3py         0.00127   0.00008  -0.01019  -0.00907   0.01536
20 O 3pz         0.00625   0.00279  -0.01335  -0.02079   0.04295
20 O 4px        -0.00378   0.01062  -0.00808   0.01401  -0.02544
20 O 4py         0.00256  -0.00301  -0.01181  -0.00496   0.00851
20 O 4pz         0.00928   0.00073  -0.01565  -0.01946   0.03827
20 O 3dxy        0.00016  -0.00042   0.00034  -0.00022  -0.00005
20 O 3dyz        0.00000  -0.00031   0.00062   0.00034  -0.00087
20 O 3dz^2      -0.00024  -0.00004   0.00003  -0.00003  -0.00033
20 O 3dxz        0.00006  -0.00041   0.00031  -0.00023  -0.00002
20 O 3dx2-y2    -0.00007   0.00005  -0.00038  -0.00040   0.00040
20 O 4dxy       -0.00012  -0.00074   0.00099  -0.00107   0.00108
20 O 4dyz       -0.00033  -0.00060   0.00107   0.00093  -0.00238
20 O 4dz^2      -0.00006  -0.00014  -0.00010  -0.00003  -0.00111
20 O 4dxz       -0.00005  -0.00112   0.00095  -0.00039  -0.00065
20 O 4dx2-y2     0.00016  -0.00033  -0.00067  -0.00137   0.00119
20 O 4f-3       -0.00001   0.00016  -0.00008   0.00027  -0.00032
20 O 4f-2       -0.00001   0.00009  -0.00022  -0.00019   0.00043
20 O 4f-1        0.00018  -0.00012   0.00015   0.00013  -0.00004
20 O 4f+0        0.00001  -0.00017   0.00022   0.00004  -0.00028
20 O 4f+1        0.00011  -0.00013  -0.00002  -0.00018   0.00049
20 O 4f+2       -0.00013   0.00017  -0.00003   0.00012  -0.00029
20 O 4f+3        0.00005  -0.00008   0.00020   0.00010  -0.00002
21 O 1s         -0.00008  -0.00014   0.00001  -0.00005   0.00032
21 O 2s          0.00084   0.00825   0.01473  -0.01036  -0.02659
21 O 3s          0.00022   0.00243   0.00420  -0.00278  -0.00754
21 O 4s          0.00096   0.01473   0.02213  -0.01619  -0.04263
21 O 2px        -0.00447   0.00852   0.00410   0.01459   0.02474
21 O 2py         0.00184   0.00083   0.01125  -0.01045  -0.01957
21 O 2pz        -0.00332  -0.00418  -0.00900   0.00975   0.02213
21 O 3px        -0.00580   0.01031   0.00414   0.01941   0.03273
21 O 3py         0.00276   0.00128   0.01373  -0.01382  -0.02561
21 O 3pz        -0.00424  -0.00569  -0.01164   0.01271   0.02932
21 O 4px        -0.00607   0.00990   0.00396   0.01858   0.03456
21 O 4py         0.00484  -0.00228   0.01593  -0.00953  -0.01763
21 O 4pz        -0.00683  -0.00439  -0.01342   0.01279   0.02605
21 O 3dxy        0.00019  -0.00041  -0.00024  -0.00035  -0.00021
[...]
000u0u0uuu : -7.61e-02   u000uuu00u : -7.96e-02   0000uuu0uu : -8.62e-02   
u000uu0u0u :  7.02e-02   0000uuuuu0 : -6.93e-02   0u00uuu0u0 : -7.14e-02   
0u000u0uuu : -6.37e-02   000u00uuuu :  6.06e-02   u000uuuu00 : -6.74e-02   
0u00uuu00u :  5.38e-02   0u000uu0uu :  4.37e-02   00u0uu0uu0 : -6.66e-02   
000uu0uu0u :  4.98e-02   0u00u0u0uu :  3.73e-02   00000uuuuu : -5.71e-02   
00u0uu0u0u :  4.31e-02   00u0u00uuu :  3.45e-02   000uu0uuu0 : -5.51e-02   
State 6/9                State 7/9                State 8/9                
000u0uuu0u :  8.02e-01   000u0uu0uu : -6.25e-01   00u00uu0uu :  6.87e-01   
0u000uuu0u : -4.93e-01   000u0uuuu0 :  4.41e-01   00u000uuuu :  6.09e-01   
00u00uu0uu : -1.55e-01   000u00uuuu : -3.72e-01   00u00uuuu0 :  2.04e-01   
00u000uuuu : -1.23e-01   00u00uuu0u :  3.04e-01   000u0uuu0u :  1.90e-01   
00u00uuuu0 :  1.20e-01   0u000uu0uu :  2.86e-01   u0000uu0uu : -1.32e-01   
000u0u0uuu :  1.16e-01   00u00u0uuu :  1.67e-01   000u0u0uuu :  1.11e-01   
000uuuuu00 :  1.14e-01   0u000uuuu0 : -1.36e-01   u00000uuuu : -1.07e-01   
00uu0u0u0u :  7.83e-02   0u0000uuuu :  9.92e-02   00u0uuu0u0 :  9.53e-02   
0u0u0uu00u :  7.73e-02   000uuuu0u0 : -8.72e-02   00u0u0uuu0 :  9.04e-02   
0u00uuuu00 : -7.11e-02   0000uuuuu0 : -7.43e-02   00uu00u0uu : -6.88e-02   
Leading 10 CSFs of 9 local primitive basis functions for fragment 1 in rootspace 17:
State 0/9                State 1/9                State 2/9                
0000uuuuuu :  9.57e-01   000u0uuuuu :  9.91e-01   00u00uuuuu :  9.59e-01   
00u00uuuuu :  2.49e-01   0u0u0uuu0u : -6.41e-02   0000uuuuuu : -2.50e-01   
000uuu0uuu : -6.19e-02   000uu0uuuu :  6.41e-02   00u0u0uuuu :  6.08e-02   
0u00uuuu0u : -6.18e-02   00uu0uu0uu : -6.18e-02   00uu0u0uuu :  6.01e-02   
00u0uuu0uu : -5.97e-02   u00u0uuuu0 : -5.63e-02   u0u00uuuu0 : -5.96e-02   
0u000uuuuu : -5.94e-02   u0uu0uu0u0 : -2.39e-02   0uu00uuu0u : -5.84e-02   
u000uuuuu0 : -5.41e-02   0u0uu0uu0u :  2.28e-02   0uuu0u0u0u :  2.19e-02   
u0u0uuu0u0 : -2.30e-02   00uuu0u0uu :  2.07e-02   0uu0u0uu0u :  2.18e-02   
0u0uuu0u0u : -2.18e-02   u00uu0uuu0 :  1.95e-02   00uuu00uuu : -2.12e-02   
00uuuu00uu : -1.96e-02   0uuu0uu00u : -1.94e-02   u0uu0u0uu0 :  1.91e-02   
State 3/9                State 4/9                State 5/9                
0u000uuuuu :  9.89e-01   u0000uuuuu :  9.90e-01   00u0uuuuu0 :  9.33e-01   
0u00u0uuuu :  6.59e-02   u0u00uu0uu :  6.86e-02   00uu0uuu0u :  2.97e-01   
0u0u0u0uuu :  6.54e-02   u00u0u0uuu :  6.37e-02   0u00uuuuu0 :  1.30e-01   
0uu00uu0uu :  6.05e-02   u000u0uuuu :  6.36e-02   0uu00uuuu0 :  6.29e-02   
0000uuuuuu :  5.77e-02   uu000uuu0u :  6.08e-02   00uuuu0uu0 : -6.13e-02   
uu000uuuu0 : -5.48e-02   uu00u0uu0u : -2.27e-02   0uu0uuuu00 :  6.05e-02   
uuu00uu0u0 :  2.39e-02   uu0u0u0u0u : -2.25e-02   00u0uu0uuu : -5.92e-02   
0u0uu00uuu : -2.13e-02   u00uu00uuu : -2.14e-02   00uu00uuuu :  5.83e-02   
0uu0u0u0uu : -2.07e-02   u0u0u0u0uu : -2.04e-02   000uuuuu0u : -3.92e-02   
0uuu0u00uu : -2.06e-02   u0uu0u00uu : -2.03e-02   u00u0uuuu0 :  3.21e-02   
State 6/9                State 7/9                State 8/9                
00uu0uuuu0 :  9.43e-01   000uuuuu0u :  9.06e-01   000uuuuuu0 :  7.36e-01   
00u0uuuu0u :  2.66e-01   00uu0uuu0u :  3.32e-01   00u0uuuu0u : -5.56e-01   
00u0u0uuuu :  9.92e-02   000uu0uuuu :  1.68e-01   00uu0u0uuu :  2.11e-01   
0u0u0uuuu0 : -9.56e-02   0u0u0uuu0u :  1.11e-01   0u00uuuu0u : -1.45e-01   
0uu00uuu0u :  7.42e-02   00u0uuuuu0 : -7.20e-02   0u0u0uuuu0 :  1.32e-01   
00uuu0uuu0 :  6.26e-02   00uu00uuuu :  6.99e-02   0uu00uuu0u :  1.19e-01   
0uuu0uuu00 :  6.10e-02   00uuuuu00u :  6.23e-02   00uu0uuuu0 :  1.09e-01   
000uuuuuu0 :  6.08e-02   00uu0uu0uu :  6.04e-02   u0u00uuuu0 :  9.48e-02   
000uuu0uuu :  3.20e-02   u00uuuuu00 : -5.52e-02   00u0uuu0uu :  8.30e-02   
u000uuuuu0 : -2.71e-02   u0u00uuu0u :  4.69e-02   000uuu0uuu :  7.28e-02   
Rootspace 23 with averaged weight 1.976e-07
 Frag    Nelec  2S+1   Ir     <n>  Max(weight)   Entropy
    0    3a+2b     6    A   0.123       0.9745  0.115478
    1    3a+3b     7    A   2.688       0.8873  0.117230
Wave function(s) in rootspace 23 in local primitive basis:
 Fac:  1.760e-04  2.105e-04  2.762e-04  5.891e-04  6.994e-04
  03: -9.317e-01  9.443e-01 -9.307e-01  9.429e-01 -9.422e-01
  00: -3.078e-01  2.747e-01 -3.103e-01  2.785e-01 -2.804e-01
  50: -1.232e-01  1.201e-01 -1.234e-01  1.205e-01 -1.207e-01
  02:  1.039e-01 -8.702e-02  1.051e-01 -8.895e-02  8.992e-02
  53:  7.966e-02 -7.749e-02  7.984e-02 -7.775e-02  7.787e-02
  52: -4.728e-02  4.830e-02 -4.720e-02  4.818e-02 -4.813e-02
  10:  2.563e-02 -2.646e-02  2.557e-02 -2.636e-02  2.631e-02
  43:  2.065e-02 -2.010e-02  2.068e-02 -2.016e-02  2.020e-02
  40: -1.817e-02  1.717e-02 -1.824e-02  1.728e-02 -1.734e-02
  42:  1.591e-02 -1.550e-02  1.594e-02 -1.555e-02  1.557e-02
  08:  1.464e-02 -1.450e-02  1.464e-02 -1.452e-02  1.453e-02
  21:  1.178e-02 -1.179e-02  1.178e-02 -1.179e-02  1.179e-02
  06: -1.106e-02  1.092e-02 -1.107e-02  1.093e-02 -1.094e-02
  13: -1.011e-02  1.128e-02 -1.002e-02  1.115e-02 -1.108e-02
  70: -1.002e-02  9.322e-03 -1.007e-02  9.401e-03 -9.441e-03
  34: -9.639e-03  9.569e-03 -9.644e-03  9.579e-03 -9.583e-03
  31: -8.208e-03  8.269e-03 -8.208e-03  8.265e-03 -8.262e-03
  72: -6.822e-03  7.174e-03 -6.795e-03  7.134e-03 -7.114e-03
  73:  4.486e-03 -4.270e-03  4.498e-03 -4.293e-03  4.306e-03
  84: -3.355e-03  3.280e-03 -3.360e-03  3.289e-03 -3.293e-03
  12:  2.254e-03 -2.324e-03  2.247e-03 -2.315e-03  2.311e-03
  61: -2.269e-03  2.265e-03 -2.271e-03  2.266e-03 -2.267e-03
  24: -1.306e-03  1.187e-03 -1.313e-03  1.200e-03 -1.207e-03
  81:  8.968e-04 -8.354e-04  8.997e-04 -8.419e-04  8.453e-04
  58: -5.059e-04  5.046e-04 -5.061e-04  5.047e-04 -5.047e-04
  56:  3.366e-04 -3.432e-04  3.363e-04 -3.424e-04  3.420e-04
  64: -1.232e-04  1.447e-04 -1.223e-04  1.426e-04 -1.414e-04
  04:  1.084e-04 -1.072e-04  1.085e-04 -1.074e-04  1.074e-04
  78: -1.063e-04  1.055e-04 -1.063e-04  1.056e-04 -1.056e-04
  48: -1.008e-04  9.944e-05 -1.007e-04  9.957e-05 -9.965e-05
  01: -7.072e-05  7.260e-05 -7.075e-05  7.240e-05 -7.230e-05
Remaining 50 ENVs in rootspace 23 have combined average weight = 5.941096e-09
Leading 10 CSFs of 9 local primitive basis functions for fragment 0 in rootspace 23:
State 0/9                State 1/9                State 2/9                
00000uuuuu :  9.82e-01   0000u0uuuu : -9.09e-01   0000uuuu0u : -8.48e-01   
0000uuuuu0 : -1.14e-01   0000uuu0uu : -3.73e-01   0000uu0uuu : -4.88e-01   
000u00uuuu : -7.48e-02   00u0u00uuu :  9.11e-02   000uu0uu0u : -8.82e-02   
00u00u0uuu : -7.11e-02   0u00u0u0uu :  8.78e-02   00u0uu0u0u : -8.78e-02   
0u000uu0uu : -6.75e-02   u000u0uu0u :  7.35e-02   0u00uuu00u : -8.72e-02   
u0000uuu0u : -5.76e-02   000u00uuuu : -4.78e-02   0u000uuu0u : -6.36e-02   
uu000uu00u : -2.25e-02   00u0uu00uu : -4.04e-02   0u000u0uuu : -6.35e-02   
0uu00u00uu : -2.17e-02   000uu0u0uu : -3.86e-02   00u000uuuu :  5.20e-02   
000uu0uuu0 :  2.10e-02   00u00uuu0u :  3.76e-02   000uu00uuu : -5.06e-02   
0u0u00u0uu : -1.97e-02   00u00u0uuu :  3.63e-02   0u00uu00uu :  4.63e-02   
State 3/9                State 4/9                State 5/9                
0000uu0uuu : -8.49e-01   0000uuu0uu :  9.02e-01   0000uuuuu0 : -9.07e-01   
0000uuuu0u :  4.89e-01   0000u0uuuu : -3.79e-01   000u00uuuu :  2.98e-01   
0u00uu00uu :  8.62e-02   000uu0u0uu :  9.11e-02   00u00u0uuu :  1.83e-01   
000uu00uuu : -8.62e-02   00u0uu00uu :  9.01e-02   0u000uu0uu :  1.12e-01   
000u0u0uuu : -7.61e-02   u000uuu00u : -7.96e-02   0000uuu0uu : -8.60e-02   
u000uu0u0u :  7.02e-02   0000uuuuu0 : -6.91e-02   0u00uuu0u0 : -7.14e-02   
0u000u0uuu : -6.36e-02   000u00uuuu :  6.05e-02   u000uuuu00 : -6.74e-02   
0u00uuu00u :  5.38e-02   0u000uu0uu :  4.36e-02   00u0uu0uu0 : -6.66e-02   
000uu0uu0u :  4.98e-02   0u00u0u0uu :  3.73e-02   00000uuuuu : -5.71e-02   
00u0uu0u0u :  4.31e-02   00u0u00uuu :  3.45e-02   000uu0uuu0 : -5.51e-02   
State 6/9                State 7/9                State 8/9                
000u0uuu0u :  8.02e-01   000u0uu0uu : -6.25e-01   00u00uu0uu :  6.87e-01   
0u000uuu0u : -4.93e-01   000u0uuuu0 :  4.40e-01   00u000uuuu :  6.09e-01   
00u00uu0uu : -1.55e-01   000u00uuuu : -3.72e-01   00u00uuuu0 :  2.04e-01   
00u000uuuu : -1.23e-01   00u00uuu0u :  3.04e-01   000u0uuu0u :  1.90e-01   
00u00uuuu0 :  1.20e-01   0u000uu0uu :  2.86e-01   u0000uu0uu : -1.32e-01   
000u0u0uuu :  1.16e-01   00u00u0uuu :  1.67e-01   000u0u0uuu :  1.12e-01   
000uuuuu00 :  1.14e-01   0u000uuuu0 : -1.36e-01   u00000uuuu : -1.07e-01   
00uu0u0u0u :  7.83e-02   0u0000uuuu :  9.92e-02   00u0uuu0u0 :  9.53e-02   
0u0u0uu00u :  7.73e-02   000uuuu0u0 : -8.72e-02   00u0u0uuu0 :  9.04e-02   
0u00uuuu00 : -7.11e-02   0000uuuuu0 : -7.43e-02   00uu00u0uu : -6.88e-02   
Leading 10 CSFs of 9 local primitive basis functions for fragment 1 in rootspace 23:
State 0/9                State 1/9                State 2/9                
0000uuuuuu :  9.57e-01   000u0uuuuu :  9.91e-01   00u00uuuuu :  9.59e-01   
00u00uuuuu :  2.49e-01   0u0u0uuu0u : -6.41e-02   0000uuuuuu : -2.50e-01   
000uuu0uuu : -6.19e-02   000uu0uuuu :  6.41e-02   00u0u0uuuu :  6.08e-02   
0u00uuuu0u : -6.18e-02   00uu0uu0uu : -6.18e-02   00uu0u0uuu :  6.01e-02   
00u0uuu0uu : -5.97e-02   u00u0uuuu0 : -5.63e-02   u0u00uuuu0 : -5.96e-02   
0u000uuuuu : -5.95e-02   u0uu0uu0u0 : -2.39e-02   0uu00uuu0u : -5.84e-02   
u000uuuuu0 : -5.41e-02   0u0uu0uu0u :  2.28e-02   0uuu0u0u0u :  2.19e-02   
u0u0uuu0u0 : -2.30e-02   00uuu0u0uu :  2.07e-02   0uu0u0uu0u :  2.18e-02   
0u0uuu0u0u : -2.18e-02   u00uu0uuu0 :  1.95e-02   00uuu00uuu : -2.12e-02   
00uuuu00uu : -1.96e-02   0uuu0uu00u : -1.94e-02   u0uu0u0uu0 :  1.91e-02   
State 3/9                State 4/9                State 5/9                
0u000uuuuu :  9.89e-01   u0000uuuuu :  9.90e-01   00u0uuuuu0 :  9.33e-01   
0u00u0uuuu :  6.59e-02   u0u00uu0uu :  6.86e-02   00uu0uuu0u :  2.97e-01   
0u0u0u0uuu :  6.54e-02   u00u0u0uuu :  6.38e-02   0u00uuuuu0 :  1.30e-01   
0uu00uu0uu :  6.05e-02   u000u0uuuu :  6.36e-02   0uu00uuuu0 :  6.30e-02   
0000uuuuuu :  5.77e-02   uu000uuu0u :  6.08e-02   00uuuu0uu0 : -6.14e-02   
uu000uuuu0 : -5.48e-02   uu00u0uu0u : -2.27e-02   0uu0uuuu00 :  6.05e-02   
uuu00uu0u0 :  2.39e-02   uu0u0u0u0u : -2.25e-02   00u0uu0uuu : -5.91e-02   
0u0uu00uuu : -2.13e-02   u00uu00uuu : -2.14e-02   00uu00uuuu :  5.84e-02   
0uu0u0u0uu : -2.07e-02   u0u0u0u0uu : -2.04e-02   000uuuuu0u : -3.93e-02   
0uuu0u00uu : -2.06e-02   u0uu0u00uu : -2.03e-02   u00u0uuuu0 :  3.21e-02   
State 6/9                State 7/9                State 8/9                
00uu0uuuu0 :  9.43e-01   000uuuuu0u :  9.06e-01   000uuuuuu0 :  7.37e-01   
00u0uuuu0u :  2.65e-01   00uu0uuu0u :  3.32e-01   00u0uuuu0u : -5.55e-01   
00u0u0uuuu :  9.92e-02   000uu0uuuu :  1.69e-01   00uu0u0uuu :  2.11e-01   
0u0u0uuuu0 : -9.56e-02   0u0u0uuu0u :  1.11e-01   0u00uuuu0u : -1.45e-01   
0uu00uuu0u :  7.42e-02   00u0uuuuu0 : -7.18e-02   0u0u0uuuu0 :  1.32e-01   
00uuu0uuu0 :  6.26e-02   00uu00uuuu :  7.01e-02   0uu00uuu0u :  1.19e-01   
0uuu0uuu00 :  6.10e-02   00uuuuu00u :  6.23e-02   00uu0uuuu0 :  1.09e-01   
000uuuuuu0 :  6.09e-02   00uu0uu0uu :  6.07e-02   u0u00uuuu0 :  9.48e-02   
000uuu0uuu :  3.21e-02   u00uuuuu00 : -5.52e-02   00u0uuu0uu :  8.27e-02   
u000uuuuu0 : -2.71e-02   u0u00uuu0u :  4.69e-02   000uuu0uuu :  7.26e-02   
Rootspace 9 with averaged weight 1.778e-07
 Frag    Nelec  2S+1   Ir     <n>  Max(weight)   Entropy
    0    1a+4b     4    A   4.927       0.8929  0.250660
    1    5a+1b     7    A   2.215       0.7109  0.250535
Wave function(s) in rootspace 9 in local primitive basis:
 Fac:  3.386e-04  4.429e-04  5.269e-04  1.266e-04  5.331e-04
  53:  8.166e-01 -8.187e-01  8.177e-01 -8.163e-01 -8.187e-01
  50: -4.617e-01  4.573e-01 -4.594e-01  4.624e-01  4.572e-01
  63: -1.597e-01  1.561e-01 -1.576e-01  1.601e-01  1.557e-01
  10:  1.468e-01 -1.519e-01  1.497e-01 -1.462e-01 -1.524e-01
  52:  1.147e-01 -1.139e-01  1.142e-01 -1.147e-01 -1.137e-01
  60:  1.140e-01 -1.094e-01  1.114e-01 -1.145e-01 -1.091e-01
  33: -9.490e-02  9.491e-02 -9.496e-02  9.490e-02  9.500e-02
  83:  8.901e-02 -9.474e-02  9.237e-02 -8.841e-02 -9.540e-02
  12:  9.076e-02 -9.001e-02  9.033e-02 -9.083e-02 -8.995e-02
  62: -8.209e-02  8.337e-02 -8.283e-02  8.197e-02  8.349e-02
  74:  5.733e-02 -5.732e-02  5.738e-02 -5.737e-02 -5.739e-02
  21:  5.282e-02 -5.267e-02  5.272e-02 -5.283e-02 -5.262e-02
  71:  4.755e-02 -4.672e-02  4.706e-02 -4.764e-02 -4.662e-02
  01:  4.283e-02 -4.507e-02  4.410e-02 -4.258e-02 -4.526e-02
  82: -4.181e-02  4.306e-02 -4.253e-02  4.168e-02  4.318e-02
  41: -3.119e-02  3.021e-02 -3.061e-02  3.127e-02  3.009e-02
  80: -2.769e-02  2.952e-02 -2.893e-02  2.759e-02  2.999e-02
  30: -2.508e-02  2.532e-02 -2.509e-02  2.498e-02  2.515e-02
  32: -1.640e-02  1.934e-02 -1.809e-02  1.610e-02  1.963e-02
  24:  8.129e-03 -8.087e-03  8.088e-03 -8.127e-03 -8.055e-03
  58: -7.983e-03  8.021e-03 -8.000e-03  7.972e-03  8.019e-03
  56:  5.952e-03 -5.992e-03  5.970e-03 -5.942e-03 -5.990e-03
  13:  5.889e-03 -2.313e-03  3.901e-03 -6.306e-03 -2.070e-03
  44:  3.076e-03 -4.429e-03  3.877e-03 -2.950e-03 -4.593e-03
  18: -2.771e-03  2.714e-03 -2.736e-03  2.773e-03  2.706e-03
  68:  2.729e-03 -2.711e-03  2.718e-03 -2.731e-03 -2.707e-03
  04: -2.643e-03  1.982e-03 -2.285e-03  2.724e-03  1.951e-03
  16:  2.318e-03 -2.300e-03  2.307e-03 -2.318e-03 -2.297e-03
  36: -1.733e-03  1.752e-03 -1.743e-03  1.731e-03  1.752e-03
  38:  1.677e-03 -1.713e-03  1.697e-03 -1.673e-03 -1.715e-03
  66: -1.349e-03  1.350e-03 -1.349e-03  1.350e-03  1.349e-03
  75: -9.906e-04  1.002e-03 -9.968e-04  9.893e-04  1.002e-03
  25:  8.892e-04 -8.962e-04  8.927e-04 -8.878e-04 -8.963e-04
  05:  8.667e-04 -8.804e-04  8.743e-04 -8.653e-04 -8.811e-04
  45: -8.408e-04  8.451e-04 -8.428e-04  8.398e-04  8.450e-04
  77:  4.807e-04 -5.062e-04  4.945e-04 -4.749e-04 -5.085e-04
  86:  4.570e-04 -4.968e-04  4.792e-04 -4.517e-04 -4.999e-04
  88:  2.693e-04 -2.281e-04  2.459e-04 -2.752e-04 -2.239e-04
  07: -2.243e-04  2.138e-04 -2.184e-04  2.270e-04  2.124e-04
  47:  1.909e-04 -2.086e-04  2.008e-04 -1.882e-04 -2.103e-04
  27: -1.981e-04  2.005e-04 -1.991e-04  1.976e-04  2.002e-04
  22:  1.440e-04 -1.435e-04  1.437e-04 -1.440e-04 -1.434e-04
  02:  1.151e-04 -1.183e-04  1.168e-04 -1.146e-04 -1.185e-04
  42: -1.057e-04  1.063e-04 -1.060e-04  1.056e-04  1.063e-04
  43: -9.004e-05  8.936e-05 -8.968e-05  9.012e-05  8.933e-05
  51:  7.369e-05 -7.384e-05  7.378e-05 -7.367e-05 -7.386e-05
  54: -6.095e-05  6.118e-05 -6.106e-05  6.091e-05  6.116e-05
  23:  5.224e-05 -5.235e-05  5.225e-05 -5.217e-05 -5.229e-05
Remaining 33 ENVs in rootspace 9 have combined average weight = 8.806257e-09
Leading 10 CSFs of 9 local primitive basis functions for fragment 0 in rootspace 9:
State 0/9                State 1/9                State 2/9                
00000uu20u : -6.65e-01   000000uuu2 : -6.99e-01   0000002uuu : -5.15e-01   
000002uu0u :  4.66e-01   00000u2u0u : -4.13e-01   00000uuu02 : -4.96e-01   
00000uuu02 : -4.23e-01   00000uu0u2 : -3.29e-01   00000u20uu : -4.47e-01   
00000u0uu2 : -2.52e-01   00000uuduu :  2.28e-01   00000uu20u :  2.95e-01   
00000u02uu : -1.19e-01   00000duuuu : -2.19e-01   00000u0uu2 : -2.25e-01   
00000uu02u :  1.15e-01   000000u2uu :  2.18e-01   000002uu0u : -2.06e-01   
0000020uuu :  1.08e-01   00000uu2u0 : -1.45e-01   000000uu2u :  1.80e-01   
00000uuu20 :  1.04e-01   00000uuudu : -9.32e-02   0000020uuu :  1.39e-01   
0000uuu200 : -7.72e-02   00000uduuu :  8.38e-02   00000uuu20 :  1.29e-01   
000000uu2u : -7.59e-02   000002uuu0 : -7.53e-02   00000uu02u :  6.39e-02   
State 3/9                State 4/9                State 5/9                
00000uuduu :  5.08e-01   00000u20uu : -5.43e-01   00000uduuu : -5.83e-01   
000000uuu2 :  4.98e-01   00000uuu02 :  3.75e-01   00000duuuu : -5.42e-01   
00000u2u0u : -4.93e-01   00000uu20u : -3.70e-01   00000uuudu : -4.42e-01   
000002uuu0 :  2.94e-01   00000u02uu :  3.45e-01   00000u2u0u :  2.65e-01   
00000u0u2u : -2.46e-01   00000uu02u :  3.23e-01   000000u2uu :  2.12e-01   
00000uduuu : -1.57e-01   00000u0uu2 :  2.63e-01   00000uuduu : -1.11e-01   
00000uuudu : -1.46e-01   00000u2uu0 : -2.01e-01   00000u0u2u :  9.12e-02   
000000u2uu :  9.01e-02   0000002uuu : -1.83e-01   0000duuuu0 : -6.29e-02   
00000uu2u0 : -7.37e-02   00000uuu20 : -1.46e-01   00u00d0uuu :  4.82e-02   
00000duuuu : -7.00e-02   000000uu2u :  7.66e-02   0000uuduu0 :  4.75e-02   
State 6/9                State 7/9                State 8/9                
00000uduuu : -4.65e-01   00000u0uu2 :  5.54e-01   00000uuduu :  5.31e-01   
00000duuuu :  4.18e-01   00000u2uu0 : -4.33e-01   00000uuudu : -4.39e-01   
000002u0uu :  4.08e-01   000002uu0u :  3.56e-01   00000duuuu :  3.05e-01   
000000u2uu :  3.95e-01   000000uu2u : -2.89e-01   000000u2uu : -2.78e-01   
00000uu0u2 :  2.60e-01   0000002uuu : -2.72e-01   000002u0uu : -2.68e-01   
00000uuudu :  2.30e-01   0000020uuu :  2.51e-01   00000uu0u2 :  2.54e-01   
00000uu2u0 :  2.06e-01   00000uu20u :  2.25e-01   00000u2u0u :  2.17e-01   
000000uuu2 : -1.89e-01   00000uu02u : -2.07e-01   000000uuu2 : -2.06e-01   
000002uuu0 : -1.54e-01   00000uuu02 : -1.01e-01   00000uu2u0 :  2.05e-01   
00000uuduu :  1.12e-01   00000uuu20 :  9.18e-02   00000u0u2u :  1.65e-01   
Leading 10 CSFs of 9 local primitive basis functions for fragment 1 in rootspace 9:
State 0/9                State 1/9                State 2/9                
0000uuuuuu :  9.57e-01   000u0uuuuu :  9.91e-01   00u00uuuuu : -9.59e-01   
00u00uuuuu :  2.49e-01   0u0u0uuu0u : -6.41e-02   0000uuuuuu :  2.50e-01   
000uuu0uuu : -6.19e-02   000uu0uuuu :  6.41e-02   00u0u0uuuu : -6.07e-02   
0u00uuuu0u : -6.18e-02   00uu0uu0uu : -6.19e-02   00uu0u0uuu : -6.01e-02   
00u0uuu0uu : -5.98e-02   u00u0uuuu0 : -5.63e-02   u0u00uuuu0 :  5.96e-02   
0u000uuuuu : -5.84e-02   u0uu0uu0u0 : -2.39e-02   0uu00uuu0u :  5.84e-02   
u000uuuuu0 : -5.42e-02   0u0uu0uu0u :  2.28e-02   0uuu0u0u0u : -2.19e-02   
u0u0uuu0u0 : -2.30e-02   00uuu0u0uu :  2.07e-02   0uu0u0uu0u : -2.18e-02   
0u0uuu0u0u : -2.18e-02   u00uu0uuu0 :  1.95e-02   00uuu00uuu :  2.12e-02   
00uuuu00uu : -1.96e-02   0uuu0uu00u : -1.94e-02   u0uu0u0uu0 : -1.91e-02   
State 3/9                State 4/9                State 5/9                
0u000uuuuu :  9.89e-01   u0000uuuuu :  9.90e-01   00u0uuuuu0 :  9.32e-01   
0u00u0uuuu :  6.59e-02   u0u00uu0uu :  6.86e-02   00uu0uuu0u :  2.99e-01   
0u0u0u0uuu :  6.54e-02   u00u0u0uuu :  6.38e-02   0u00uuuuu0 :  1.30e-01   
0uu00uu0uu :  6.05e-02   u000u0uuuu :  6.36e-02   0uu00uuuu0 :  6.20e-02   
0000uuuuuu :  5.68e-02   uu000uuu0u :  6.08e-02   00uuuu0uu0 : -6.13e-02   
uu000uuuu0 : -5.48e-02   uu00u0uu0u : -2.27e-02   0uu0uuuu00 :  6.05e-02   
uuu00uu0u0 :  2.39e-02   uu0u0u0u0u : -2.25e-02   00u0uu0uuu : -5.96e-02   
0u0uu00uuu : -2.13e-02   u00uu00uuu : -2.14e-02   00uu00uuuu :  5.82e-02   
0uu0u0u0uu : -2.07e-02   u0u0u0u0uu : -2.04e-02   000uuuuu0u : -3.79e-02   
0uuu0u00uu : -2.06e-02   u0uu0u00uu : -2.03e-02   u00u0uuuu0 :  3.20e-02   
State 6/9                State 7/9                State 8/9                
00uu0uuuu0 :  9.43e-01   000uuuuu0u :  9.05e-01   000uuuuuu0 :  7.33e-01   
00u0uuuu0u :  2.66e-01   00uu0uuu0u :  3.35e-01   00u0uuuu0u : -5.60e-01   
00u0u0uuuu :  9.91e-02   000uu0uuuu :  1.66e-01   00uu0u0uuu :  2.11e-01   
0u0u0uuuu0 : -9.51e-02   0u0u0uuu0u :  1.09e-01   0u00uuuu0u : -1.47e-01   
0uu00uuu0u :  7.40e-02   00u0uuuuu0 : -7.47e-02   0u0u0uuuu0 :  1.31e-01   
00uuu0uuu0 :  6.26e-02   00uu00uuuu :  6.99e-02   0uu00uuu0u :  1.20e-01   
000uuuuuu0 :  6.17e-02   00uuuuu00u :  6.23e-02   00uu0uuuu0 :  1.09e-01   
0uuu0uuu00 :  6.10e-02   00uu0uu0uu :  5.99e-02   u0u00uuuu0 :  9.45e-02   
000uuu0uuu :  3.20e-02   u00uuuuu00 : -5.52e-02   00u0uuu0uu :  8.44e-02   
u000uuuuu0 : -2.71e-02   u0u00uuu0u :  4.68e-02   000uuu0uuu :  7.33e-02   
All 33 rootspaces accounted for
