#INFO: **** input file is /project/lgagliardi/valayagarawal/lasscf/mof_nodes/Al_Fe_Fe/production/20_11/lassi_1_7.py ****
import numpy as np
import sys
from pyscf import gto, scf, tools,lib, mcscf
from pyscf.mcscf import avas,project_init_guess
from pyscf import mcscf
from mrh.my_pyscf.tools import molden
from mrh.my_pyscf.mcscf import lasscf_async as asyn
mol_name='Al_Fe_Fe.xyz' # Al-Fe-Fe MOF node
basis={'C': 'cc-pvdz','H': 'cc-pvdz','O': 'cc-pvtz','Al': 'cc-pvtz','Fe': 'cc-pvtz'}
n=7
output='r1_n'+str(n)+'.log'
mol=gto.M(atom=mol_name,verbose=4,spin=9,charge=0,basis=basis, output=output) #spin = 2S
mf=scf.RHF(mol)
mf.init_guess='atom'
mf=mf.density_fit()
mf.max_cycle=1
mf.kernel()
mf.mo_coeff=np.load('hf.npy')
#np.save('hf',mf.mo_coeff)
#ncas,nelecas,guess_mo_coeff=avas.kernel(mf,['Fe 3d', 'Fe 4d'],minao=mol.basis, openshell_option=3)
#mc_test = mcscf.CASCI (mf, ncas, nelecas)
#tools.molden.from_mo(mol,'avas.molden',guess_mo_coeff[:,mc_test.ncore:][:,:ncas])
#final_list=[5,6,8,9,10,11,12,13,14]#,15,16,17,18,19,20,21,22,23,24,25]+mc_test.ncore

mo_guess=np.load('las_20_11.npy')
las=asyn.LASSCF(mf,(10,10),((1,5),(5,0)),spin_sub=(5,6),verbose=4) # spin is 2S+1
las.set_fragments_(([17],[19]),mo_guess)
las.mo_coeff=mo_guess
from mrh.my_pyscf.lassi import states
las=states.spin_shuffle(las)
#for _ in range(i):
las=states.all_single_excitations(las)
ncsf=las.get_ugg().ncsf_sub
lroots=np.minimum(n,ncsf)
las.lasci()
las.lasci(lroots=lroots)
e_roots, si= las.lassi(opt=1)
from mrh.my_pyscf.lassi.sitools import analyze
analyze(las,si, state=[0,1,2,3,4])
#INFO: ******************** input file end ********************


System: uname_result(system='Linux', node='midway3-0544.rcc.local', release='4.18.0-305.3.1.el8.x86_64', version='#1 SMP Tue Jun 1 16:14:33 UTC 2021', machine='x86_64')  Threads 16
Python 3.9.12 (main, Apr  5 2022, 06:56:58) 
[GCC 7.5.0]
numpy 1.25.0  scipy 1.7.3
Date: Tue Feb 20 18:13:26 2024
PySCF version 2.5.0
PySCF path  /project/lgagliardi/shared/Apps/pyscf
GIT ORIG_HEAD 0bc590ffddec98eec5d2513a3d85274b7a791bc6
GIT HEAD (branch master) 6f8ce439fbe0c26ec4d226e2225b28c7f668f922

[ENV] PYSCF_MAX_MEMORY 128000
[CONFIG] conf_file /home/valayagarawal/.pyscf_conf.py
[INPUT] verbose = 4
[INPUT] num. atoms = 28
[INPUT] num. electrons = 211
[INPUT] charge = 0
[INPUT] spin (= nelec alpha-beta = 2S) = 9
[INPUT] symmetry False subgroup None
[INPUT] Mole.unit = angstrom
[INPUT] Symbol           X                Y                Z      unit          X                Y                Z       unit  Magmom
[INPUT]  1 O     -2.220198244100   0.399190300300   1.694471698900 AA   -4.195566623589   0.754360339150   3.202087436747 Bohr   0.0
[INPUT]  2 O     -1.685553244600  -1.782306321700   1.431399507200 AA   -3.185234000666  -3.368070818094   2.704953043445 Bohr   0.0
[INPUT]  3 C     -2.268517865100  -0.831955037900   1.983951274000 AA   -4.286877473722  -1.572167169583   3.749124552342 Bohr   0.0
[INPUT]  4 H     -2.913342016700  -1.076728588500   2.843786805300 AA   -5.505418518751  -2.034722142755   5.373978218669 Bohr   0.0
[INPUT]  5 O      1.388288080900   2.079556156200  -1.347085675300 AA    2.623484254899   3.929791595871  -2.545622992642 Bohr   0.0
[INPUT]  6 O     -0.759908859500   2.580923634700  -0.849227704000 AA   -1.436019624086   4.877238818000  -1.604807777953 Bohr   0.0
[INPUT]  7 C      0.346567468600   2.753895325000  -1.438835699000 AA    0.654917599338   5.204107939970  -2.719005409357 Bohr   0.0
[INPUT]  8 H      0.372379614500   3.617699659800  -2.123091150300 AA    0.703695485776   6.836461557954  -4.012060811555 Bohr   0.0
[INPUT]  9 O      1.046960908100  -2.642534200000   0.961324672200 AA    1.978469379435  -4.993665912797   1.816640347245 Bohr   0.0
[INPUT] 10 O     -0.399190300300   2.220198244100   1.694471698900 AA   -0.754360339150   4.195566623589   3.202087436747 Bohr   0.0
[INPUT] 11 O      1.782306321700   1.685553244600   1.431399507200 AA    3.368070818094   3.185234000666   2.704953043445 Bohr   0.0
[INPUT] 12 C      0.831955037900   2.268517865100   1.983951274000 AA    1.572167169583   4.286877473722   3.749124552342 Bohr   0.0
[INPUT] 13 H      1.076728588500   2.913342016700   2.843786805300 AA    2.034722142755   5.505418518751   5.373978218669 Bohr   0.0
[INPUT] 14 O     -2.079556156200  -1.388288080900  -1.347085675300 AA   -3.929791595871  -2.623484254899  -2.545622992642 Bohr   0.0
[INPUT] 15 O     -2.580923634700   0.759908859500  -0.849227704000 AA   -4.877238818000   1.436019624086  -1.604807777953 Bohr   0.0
[INPUT] 16 C     -2.753895325000  -0.346567468600  -1.438835699000 AA   -5.204107939970  -0.654917599338  -2.719005409357 Bohr   0.0
[INPUT] 17 H     -3.617699659800  -0.372379614500  -2.123091150300 AA   -6.836461557954  -0.703695485776  -4.012060811555 Bohr   0.0
[INPUT] 18 Fe    -0.379874189300  -1.792603362900  -0.200337730300 AA   -0.717858179568  -3.387529405855  -0.378583442684 Bohr   0.0
[INPUT] 19 O      0.642223180300  -2.237796553000  -1.892914517600 AA    1.213625921614  -4.228822607666  -3.577090015477 Bohr   0.0
[INPUT] 20 Fe     1.792603362900   0.379874189300  -0.200337730300 AA    3.387529405855   0.717858179568  -0.378583442684 Bohr   0.0
[INPUT] 21 O      2.237796553000  -0.642223180300  -1.892914517600 AA    4.228822607666  -1.213625921614  -3.577090015477 Bohr   0.0
[INPUT] 22 O      2.642534200000  -1.046960908100   0.961324672200 AA    4.993665912797  -1.978469379435   1.816640347245 Bohr   0.0
[INPUT] 23 Al    -1.236271642100   1.236271642100   0.350650148000 AA   -2.336214819135   2.336214819135   0.662632745258 Bohr   0.0
[INPUT] 24 O     -0.044950195400   0.044950195400   0.012762141300 AA   -0.084943558552   0.084943558552   0.024116951820 Bohr   0.0
[INPUT] 25 C      1.645528685000  -1.645528685000  -2.357112465400 AA    3.109598544766  -3.109598544766  -4.454297004404 Bohr   0.0
[INPUT] 26 H      2.056906298400  -2.056906298400  -3.294571291600 AA    3.886989567869  -3.886989567869  -6.225837438979 Bohr   0.0
[INPUT] 27 C      2.160924281100  -2.160924281100   1.277584186800 AA    4.083555067202  -4.083555067202   2.414284214127 Bohr   0.0
[INPUT] 28 H      2.796080543300  -2.796080543300   1.918244302400 AA    5.283826449062  -5.283826449062   3.624956371543 Bohr   0.0

nuclear repulsion = 3455.30471244119
number of shells = 192
number of NR pGTOs = 1065
number of NR cGTOs = 674
basis = {'C': 'cc-pvdz', 'H': 'cc-pvdz', 'O': 'cc-pvtz', 'Al': 'cc-pvtz', 'Fe': 'cc-pvtz'}
ecp = {}
CPU time:         1.76


******** <class 'pyscf.df.df_jk.DFROHF'> ********
method = DFROHF
initial guess = atom
damping factor = 0
level_shift factor = 0
DIIS = <class 'pyscf.scf.diis.CDIIS'>
diis_start_cycle = 1
diis_space = 8
diis_damp = 0
SCF conv_tol = 1e-09
SCF conv_tol_grad = None
SCF max_cycles = 1
direct_scf = False
chkfile to save SCF result = /scratch/local/jobs/17478236/tmp_ot8xyr0
max_memory 128000 MB (current use 76 MB)
num. doubly occ = 101  num. singly occ = 9
Set gradient conv threshold to 3.16228e-05
Initial guess from the superpostion of atomic densties.
Spherically averaged atomic HF for {'C', 'Fe', 'H', 'O', 'Al'}


******** <class 'pyscf.scf.atom_hf.AtomSphAverageRHF'> ********
method = AtomSphAverageRHF
initial guess = minao
damping factor = 0
level_shift factor = 0
DIIS = <class 'pyscf.scf.diis.CDIIS'>
diis_start_cycle = 1
diis_space = 8
diis_damp = 0
SCF conv_tol = 1e-09
SCF conv_tol_grad = None
SCF max_cycles = 50
direct_scf = True
direct_scf_tol = 1e-13
chkfile to save SCF result = /scratch/local/jobs/17478236/tmp2lk1igdd
max_memory 128000 MB (current use 76 MB)
atom = O
Set gradient conv threshold to 3.16228e-05
Initial guess from minao.
init E= -74.2776996160121
cycle= 1 E= -74.2879632957298  delta_E= -0.0103  |g|=    0  |ddm|= 0.12
cycle= 2 E= -74.2889455295059  delta_E= -0.000982  |g|=    0  |ddm|= 0.0571
cycle= 3 E= -74.2891874928552  delta_E= -0.000242  |g|=    0  |ddm|= 0.0164
cycle= 4 E= -74.2891907662377  delta_E= -3.27e-06  |g|=    0  |ddm|= 0.00334
cycle= 5 E= -74.2891907667003  delta_E= -4.63e-10  |g|=    0  |ddm|= 2.73e-05
Extra cycle  E= -74.2891907667016  delta_E= -1.35e-12  |g|=    0  |ddm|= 2.08e-06
Atomic HF for atom  O  converged. SCF energy = -74.2891907667016



******** <class 'pyscf.scf.atom_hf.AtomSphAverageRHF'> ********
method = AtomSphAverageRHF
initial guess = minao
damping factor = 0
level_shift factor = 0
DIIS = <class 'pyscf.scf.diis.CDIIS'>
diis_start_cycle = 1
diis_space = 8
diis_damp = 0
SCF conv_tol = 1e-09
SCF conv_tol_grad = None
SCF max_cycles = 50
direct_scf = True
direct_scf_tol = 1e-13
chkfile to save SCF result = /scratch/local/jobs/17478236/tmp46s0damd
max_memory 128000 MB (current use 101 MB)
atom = C
Set gradient conv threshold to 3.16228e-05
Initial guess from minao.
init E= -37.2786538116583
cycle= 1 E= -37.3229525149147  delta_E= -0.0443  |g|=    0  |ddm|= 0.403
cycle= 2 E= -37.3269979443145  delta_E= -0.00405  |g|=    0  |ddm|= 0.158
cycle= 3 E= -37.3274168905011  delta_E= -0.000419  |g|=    0  |ddm|= 0.0324
cycle= 4 E= -37.3274218270201  delta_E= -4.94e-06  |g|=    0  |ddm|= 0.00651
cycle= 5 E= -37.3274218271775  delta_E= -1.57e-10  |g|=    0  |ddm|= 2.35e-05
Extra cycle  E= -37.3274218271781  delta_E= -6.47e-13  |g|=    0  |ddm|= 2.26e-06
Atomic HF for atom  C  converged. SCF energy = -37.3274218271781



******** 1 electron system ********
Atomic HF for atom  H  converged. SCF energy = -0.499278403419583



******** <class 'pyscf.scf.atom_hf.AtomSphAverageRHF'> ********
method = AtomSphAverageRHF
initial guess = minao
damping factor = 0
level_shift factor = 0
DIIS = <class 'pyscf.scf.diis.CDIIS'>
diis_start_cycle = 1
diis_space = 8
diis_damp = 0
SCF conv_tol = 1e-09
SCF conv_tol_grad = None
SCF max_cycles = 50
direct_scf = True
direct_scf_tol = 1e-13
chkfile to save SCF result = /scratch/local/jobs/17478236/tmpkg1gkc4e
max_memory 128000 MB (current use 103 MB)
atom = Fe
Set gradient conv threshold to 3.16228e-05
Initial guess from minao.
init E= -1260.96738533155
cycle= 1 E= -1256.37714318082  delta_E= 4.59  |g|=    0  |ddm|= 4.24
cycle= 2 E= -1255.54237595451  delta_E= 0.835  |g|=    0  |ddm|=   15
cycle= 3 E= -1260.89038467173  delta_E= -5.35  |g|=    0  |ddm|= 13.7
cycle= 4 E= -1261.57047534209  delta_E= -0.68  |g|=    0  |ddm|= 0.824
cycle= 5 E= -1261.57622492119  delta_E= -0.00575  |g|=    0  |ddm|= 0.301
cycle= 6 E= -1261.57666902676  delta_E= -0.000444  |g|=    0  |ddm|= 0.0322
cycle= 7 E= -1261.57674274459  delta_E= -7.37e-05  |g|=    0  |ddm|= 0.0137
cycle= 8 E= -1261.57674388082  delta_E= -1.14e-06  |g|=    0  |ddm|= 0.00344
cycle= 9 E= -1261.57674388923  delta_E= -8.41e-09  |g|=    0  |ddm|= 0.000127
cycle= 10 E= -1261.57674388923  delta_E= -2.27e-13  |g|=    0  |ddm|= 3.35e-06
Extra cycle  E= -1261.57674388923  delta_E= 6.82e-13  |g|=    0  |ddm|= 3.97e-07
Atomic HF for atom  Fe  converged. SCF energy = -1261.57674388923



******** <class 'pyscf.scf.atom_hf.AtomSphAverageRHF'> ********
method = AtomSphAverageRHF
initial guess = minao
damping factor = 0
level_shift factor = 0
DIIS = <class 'pyscf.scf.diis.CDIIS'>
diis_start_cycle = 1
diis_space = 8
diis_damp = 0
SCF conv_tol = 1e-09
SCF conv_tol_grad = None
SCF max_cycles = 50
direct_scf = True
direct_scf_tol = 1e-13
chkfile to save SCF result = /scratch/local/jobs/17478236/tmpdrpmcsjh
max_memory 128000 MB (current use 141 MB)
atom = Al
Set gradient conv threshold to 3.16228e-05
Initial guess from minao.
init E= -241.752580224975
cycle= 1 E= -241.774394279578  delta_E= -0.0218  |g|=    0  |ddm|= 0.33
cycle= 2 E= -241.774822880148  delta_E= -0.000429  |g|=    0  |ddm|= 0.0589
cycle= 3 E= -241.77484101355  delta_E= -1.81e-05  |g|=    0  |ddm|= 0.00725
cycle= 4 E= -241.774841578884  delta_E= -5.65e-07  |g|=    0  |ddm|= 0.00216
cycle= 5 E= -241.774841604663  delta_E= -2.58e-08  |g|=    0  |ddm|= 0.000719
cycle= 6 E= -241.774841604811  delta_E= -1.48e-10  |g|=    0  |ddm|= 5.97e-05
Extra cycle  E= -241.774841604812  delta_E= -1.25e-12  |g|=    0  |ddm|= 4.44e-06
Atomic HF for atom  Al  converged. SCF energy = -241.774841604812

******** <class 'pyscf.df.df.DF'> ********
auxbasis = None
max_memory = 128000
Even tempered Gaussians are generated as DF auxbasis for  C Fe H O Al
init E= -3975.68788353038
  HOMO = -0.0424478076029279  LUMO = -0.0316668341931163
cycle= 1 E= -3969.65777955844  delta_E= 6.03  |g|= 3.14  |ddm|= 4.67
SCF not converged.
SCF energy = -3969.65777955844
Built 4 spin(local Sz)-shuffled LAS states from 1 reference LAS states
Built 28 singly-excited LAS states from 5 reference LAS states
Entering product-state fixed-point CI iteration
Cycle 0: max grad = 1.884708e-01 ; sigma = 0.000000e+00
Cycle 1: max grad = 1.229424e-05 ; sigma = 3.346305e-02
Cycle 2: max grad = 2.560975e-06 ; sigma = 8.627410e-11
Product_state fixed-point CI iteration converged after 2 cycles
Entering product-state fixed-point CI iteration
Cycle 0: max grad = 1.884708e-01 ; sigma = 0.000000e+00
Cycle 1: max grad = 5.393863e-06 ; sigma = 3.348211e-02
Cycle 2: max grad = 2.369173e-06 ; sigma = 5.286438e-12
Product_state fixed-point CI iteration converged after 2 cycles
Entering product-state fixed-point CI iteration
Cycle 0: max grad = 1.884708e-01 ; sigma = 0.000000e+00
Cycle 1: max grad = 3.475708e-06 ; sigma = 3.349033e-02
Cycle 2: max grad = 2.276478e-06 ; sigma = 6.224354e-12
Product_state fixed-point CI iteration converged after 2 cycles
Entering product-state fixed-point CI iteration
Cycle 0: max grad = 1.884708e-01 ; sigma = 0.000000e+00
Cycle 1: max grad = 3.522775e-06 ; sigma = 3.348759e-02
Cycle 2: max grad = 2.308122e-06 ; sigma = 8.562040e-12
Product_state fixed-point CI iteration converged after 2 cycles
Entering product-state fixed-point CI iteration
Cycle 0: max grad = 1.884708e-01 ; sigma = 0.000000e+00
Cycle 1: max grad = 8.368410e-06 ; sigma = 3.347392e-02
Cycle 2: max grad = 2.455328e-06 ; sigma = 1.882938e-11
Product_state fixed-point CI iteration converged after 2 cycles
Entering product-state fixed-point CI iteration
Cycle 0: max grad = 2.784311e-01 ; sigma = 0.000000e+00
Cycle 1: max grad = 4.634879e-05 ; sigma = 5.318269e-02
Cycle 2: max grad = 5.292951e-07 ; sigma = 5.085564e-08
Cycle 3: max grad = 8.523432e-10 ; sigma = 6.288303e-13
Product_state fixed-point CI iteration converged after 3 cycles
Entering product-state fixed-point CI iteration
Cycle 0: max grad = 3.067236e-01 ; sigma = 0.000000e+00
Cycle 1: max grad = 5.992311e-04 ; sigma = 1.169371e-01
Cycle 2: max grad = 2.250365e-06 ; sigma = 4.611400e-06
Cycle 3: max grad = 9.943609e-07 ; sigma = 9.094947e-12
Product_state fixed-point CI iteration converged after 3 cycles
Entering product-state fixed-point CI iteration
Cycle 0: max grad = 2.327562e-01 ; sigma = 0.000000e+00
Cycle 1: max grad = 5.648643e-04 ; sigma = 4.391494e-02
Cycle 2: max grad = 4.292256e-06 ; sigma = 2.400541e-06
Cycle 3: max grad = 8.594107e-07 ; sigma = 5.904610e-12
Product_state fixed-point CI iteration converged after 3 cycles
Entering product-state fixed-point CI iteration
Cycle 0: max grad = 3.083310e-01 ; sigma = 0.000000e+00
Cycle 1: max grad = 1.806373e-04 ; sigma = 5.815313e-03
Cycle 2: max grad = 3.471513e-06 ; sigma = 1.001354e-06
Cycle 3: max grad = 3.580480e-06 ; sigma = 1.041442e-10
Cycle 4: max grad = 1.643296e-06 ; sigma = 2.621903e-12
Product_state fixed-point CI iteration converged after 4 cycles
Entering product-state fixed-point CI iteration
Cycle 0: max grad = 2.551366e-01 ; sigma = 0.000000e+00
Cycle 1: max grad = 2.036378e-04 ; sigma = 8.150694e-02
Cycle 2: max grad = 1.928086e-06 ; sigma = 9.333423e-07
Cycle 3: max grad = 8.431799e-07 ; sigma = 2.671356e-10
Cycle 4: max grad = 4.869203e-07 ; sigma = 1.116263e-11
Product_state fixed-point CI iteration converged after 4 cycles
Entering product-state fixed-point CI iteration
Cycle 0: max grad = 3.077537e-01 ; sigma = 0.000000e+00
Cycle 1: max grad = 3.556113e-04 ; sigma = 3.436487e-02
Cycle 2: max grad = 1.955002e-06 ; sigma = 2.408482e-07
Cycle 3: max grad = 1.232657e-06 ; sigma = 1.877964e-11
Product_state fixed-point CI iteration converged after 3 cycles
Entering product-state fixed-point CI iteration
Cycle 0: max grad = 2.785850e-01 ; sigma = 0.000000e+00
Cycle 1: max grad = 4.595661e-05 ; sigma = 5.318012e-02
Cycle 2: max grad = 5.618072e-07 ; sigma = 5.927163e-08
Cycle 3: max grad = 7.166705e-10 ; sigma = 6.927792e-13
Product_state fixed-point CI iteration converged after 3 cycles
Entering product-state fixed-point CI iteration
Cycle 0: max grad = 3.067052e-01 ; sigma = 0.000000e+00
Cycle 1: max grad = 5.861469e-04 ; sigma = 1.170948e-01
Cycle 2: max grad = 2.135161e-06 ; sigma = 4.179263e-06
Cycle 3: max grad = 1.320258e-06 ; sigma = 9.023893e-12
Product_state fixed-point CI iteration converged after 3 cycles
Entering product-state fixed-point CI iteration
Cycle 0: max grad = 2.327512e-01 ; sigma = 0.000000e+00
Cycle 1: max grad = 5.626359e-04 ; sigma = 4.458519e-02
Cycle 2: max grad = 4.646999e-06 ; sigma = 4.939012e-06
Cycle 3: max grad = 6.020661e-07 ; sigma = 1.310241e-11
Product_state fixed-point CI iteration converged after 3 cycles
Entering product-state fixed-point CI iteration
Cycle 0: max grad = 3.083128e-01 ; sigma = 0.000000e+00
Cycle 1: max grad = 2.345229e-04 ; sigma = 5.828458e-03
Cycle 2: max grad = 5.566392e-06 ; sigma = 1.777866e-06
Cycle 3: max grad = 1.318146e-06 ; sigma = 3.041407e-10
Cycle 4: max grad = 1.083318e-06 ; sigma = 3.367973e-12
Product_state fixed-point CI iteration converged after 4 cycles
Entering product-state fixed-point CI iteration
Cycle 0: max grad = 2.550410e-01 ; sigma = 0.000000e+00
Cycle 1: max grad = 2.379875e-04 ; sigma = 8.171111e-02
Cycle 2: max grad = 1.927086e-06 ; sigma = 1.317811e-06
Cycle 3: max grad = 9.762213e-07 ; sigma = 3.389715e-10
Cycle 4: max grad = 5.648514e-07 ; sigma = 1.476153e-11
Product_state fixed-point CI iteration converged after 4 cycles
Entering product-state fixed-point CI iteration
Cycle 0: max grad = 3.077285e-01 ; sigma = 0.000000e+00
Cycle 1: max grad = 3.454360e-04 ; sigma = 3.460276e-02
Cycle 2: max grad = 2.317995e-06 ; sigma = 4.272844e-07
Cycle 3: max grad = 1.132493e-06 ; sigma = 8.853362e-12
Product_state fixed-point CI iteration converged after 3 cycles
Entering product-state fixed-point CI iteration
Cycle 0: max grad = 2.786705e-01 ; sigma = 0.000000e+00
Cycle 1: max grad = 4.651225e-05 ; sigma = 5.317862e-02
Cycle 2: max grad = 5.794670e-07 ; sigma = 6.407412e-08
Cycle 3: max grad = 6.451043e-10 ; sigma = 6.892265e-13
Product_state fixed-point CI iteration converged after 3 cycles
Entering product-state fixed-point CI iteration
Cycle 0: max grad = 3.067015e-01 ; sigma = 0.000000e+00
Cycle 1: max grad = 5.835233e-04 ; sigma = 1.171264e-01
Cycle 2: max grad = 2.112375e-06 ; sigma = 4.118257e-06
Cycle 3: max grad = 1.202589e-06 ; sigma = 7.375434e-12
Product_state fixed-point CI iteration converged after 3 cycles
Entering product-state fixed-point CI iteration
Cycle 0: max grad = 2.327502e-01 ; sigma = 0.000000e+00
Cycle 1: max grad = 5.629732e-04 ; sigma = 4.471923e-02
Cycle 2: max grad = 4.715402e-06 ; sigma = 5.349624e-06
Cycle 3: max grad = 5.617916e-07 ; sigma = 1.447020e-11
Product_state fixed-point CI iteration converged after 3 cycles
Entering product-state fixed-point CI iteration
Cycle 0: max grad = 3.083092e-01 ; sigma = 0.000000e+00
Cycle 1: max grad = 2.491446e-04 ; sigma = 5.831027e-03
Cycle 2: max grad = 6.002161e-06 ; sigma = 1.870328e-06
Cycle 3: max grad = 1.760538e-06 ; sigma = 3.921983e-10
Cycle 4: max grad = 1.220893e-06 ; sigma = 1.051603e-11
Product_state fixed-point CI iteration converged after 4 cycles
Entering product-state fixed-point CI iteration
Cycle 0: max grad = 2.550219e-01 ; sigma = 0.000000e+00
Cycle 1: max grad = 2.449739e-04 ; sigma = 8.175297e-02
Cycle 2: max grad = 1.955722e-06 ; sigma = 1.402521e-06
Cycle 3: max grad = 1.005238e-06 ; sigma = 3.552110e-10
Cycle 4: max grad = 5.831845e-07 ; sigma = 1.568878e-11
Product_state fixed-point CI iteration converged after 4 cycles
Entering product-state fixed-point CI iteration
Cycle 0: max grad = 3.077235e-01 ; sigma = 0.000000e+00
Cycle 1: max grad = 3.433519e-04 ; sigma = 3.465135e-02
Cycle 2: max grad = 2.389028e-06 ; sigma = 4.710340e-07
Cycle 3: max grad = 1.062282e-06 ; sigma = 6.558309e-12
Product_state fixed-point CI iteration converged after 3 cycles
Entering product-state fixed-point CI iteration
Cycle 0: max grad = 2.786876e-01 ; sigma = 0.000000e+00
Cycle 1: max grad = 4.673089e-05 ; sigma = 5.317831e-02
Cycle 2: max grad = 5.829607e-07 ; sigma = 6.504435e-08
Cycle 3: max grad = 6.311475e-10 ; sigma = 6.146195e-13
Product_state fixed-point CI iteration converged after 3 cycles
Entering product-state fixed-point CI iteration
Cycle 0: max grad = 3.067125e-01 ; sigma = 0.000000e+00
Cycle 1: max grad = 5.913872e-04 ; sigma = 1.170316e-01
Cycle 2: max grad = 2.179901e-06 ; sigma = 4.326966e-06
Cycle 3: max grad = 2.905984e-07 ; sigma = 7.268852e-12
Product_state fixed-point CI iteration converged after 3 cycles
Entering product-state fixed-point CI iteration
Cycle 0: max grad = 2.327532e-01 ; sigma = 0.000000e+00
Cycle 1: max grad = 5.619537e-04 ; sigma = 4.431709e-02
Cycle 2: max grad = 4.507687e-06 ; sigma = 4.019992e-06
Cycle 3: max grad = 6.936838e-07 ; sigma = 1.057998e-11
Product_state fixed-point CI iteration converged after 3 cycles
Entering product-state fixed-point CI iteration
Cycle 0: max grad = 3.083201e-01 ; sigma = 0.000000e+00
Cycle 1: max grad = 2.055908e-04 ; sigma = 5.823260e-03
Cycle 2: max grad = 4.711353e-06 ; sigma = 1.531160e-06
Cycle 3: max grad = 2.353117e-06 ; sigma = 2.384155e-10
Cycle 4: max grad = 1.042747e-06 ; sigma = 9.180212e-12
Product_state fixed-point CI iteration converged after 4 cycles
Entering product-state fixed-point CI iteration
Cycle 0: max grad = 2.550792e-01 ; sigma = 0.000000e+00
Cycle 1: max grad = 2.241311e-04 ; sigma = 8.162841e-02
Cycle 2: max grad = 1.913730e-06 ; sigma = 1.156262e-06
Cycle 3: max grad = 9.208399e-07 ; sigma = 3.084395e-10
Cycle 4: max grad = 5.292846e-07 ; sigma = 1.311307e-11
Product_state fixed-point CI iteration converged after 4 cycles
Entering product-state fixed-point CI iteration
Cycle 0: max grad = 3.077386e-01 ; sigma = 0.000000e+00
Cycle 1: max grad = 3.495559e-04 ; sigma = 3.450660e-02
Cycle 2: max grad = 2.174276e-06 ; sigma = 3.461727e-07
Cycle 3: max grad = 1.213587e-06 ; sigma = 1.320899e-11
Product_state fixed-point CI iteration converged after 3 cycles
Entering product-state fixed-point CI iteration
Cycle 0: max grad = 2.786363e-01 ; sigma = 0.000000e+00
Cycle 1: max grad = 4.607566e-05 ; sigma = 5.317923e-02
Cycle 2: max grad = 5.724407e-07 ; sigma = 6.214312e-08
Cycle 3: max grad = 6.733778e-10 ; sigma = 6.821210e-13
Product_state fixed-point CI iteration converged after 3 cycles
Entering product-state fixed-point CI iteration
Cycle 0: max grad = 2.327602e-01 ; sigma = 0.000000e+00
Cycle 1: max grad = 6.209126e-04 ; sigma = 4.337872e-02
Cycle 2: max grad = 3.992423e-06 ; sigma = 1.978465e-07
Cycle 3: max grad = 1.137854e-06 ; sigma = 3.971934e-12
Product_state fixed-point CI iteration converged after 3 cycles
Entering product-state fixed-point CI iteration
Cycle 0: max grad = 3.077738e-01 ; sigma = 0.000000e+00
Cycle 1: max grad = 3.634427e-04 ; sigma = 3.418067e-02
Cycle 2: max grad = 3.346335e-06 ; sigma = 1.317945e-07
Cycle 3: max grad = 4.962140e-07 ; sigma = 9.585222e-12
Product_state fixed-point CI iteration converged after 3 cycles
Entering product-state fixed-point CI iteration
Cycle 0: max grad = 2.785166e-01 ; sigma = 0.000000e+00
Cycle 1: max grad = 4.605856e-05 ; sigma = 5.318129e-02
Cycle 2: max grad = 5.474639e-07 ; sigma = 5.549294e-08
Cycle 3: max grad = 7.759520e-10 ; sigma = 5.648815e-13
Product_state fixed-point CI iteration converged after 3 cycles
LASSCF state-average energy = -3971.89018525224
LASSCF state 0 energy = -3971.89018525224
LASSCF state 1 energy = -3971.89049467745
LASSCF state 2 energy = -3971.8906273398
LASSCF state 3 energy = -3971.89058311557
LASSCF state 4 energy = -3971.89036204604
LASSCF state 5 energy = -3969.48093908276
LASSCF state 6 energy = -3970.98995513759
LASSCF state 7 energy = -3969.569277641
LASSCF state 8 energy = -3971.5111195471
LASSCF state 9 energy = -3969.35032714229
LASSCF state 10 energy = -3971.64263382622
LASSCF state 11 energy = -3969.48199401442
LASSCF state 12 energy = -3970.99011278563
LASSCF state 13 energy = -3969.56971596364
LASSCF state 14 energy = -3971.51146460594
LASSCF state 15 energy = -3969.3507335344
LASSCF state 16 energy = -3971.64312475168
LASSCF state 17 energy = -3969.48258018069
LASSCF state 18 energy = -3970.99014433942
LASSCF state 19 energy = -3969.56980395116
LASSCF state 20 energy = -3971.51153490949
LASSCF state 21 energy = -3969.35081586567
LASSCF state 22 energy = -3971.64322411903
LASSCF state 23 energy = -3969.48269742185
LASSCF state 24 energy = -3970.99004970236
LASSCF state 25 energy = -3969.56954031213
LASSCF state 26 energy = -3971.51132530586
LASSCF state 27 energy = -3969.35056993026
LASSCF state 28 energy = -3971.64292719394
LASSCF state 29 energy = -3969.48234570627
LASSCF state 30 energy = -3969.56892890982
LASSCF state 31 energy = -3971.64224828029
LASSCF state 32 energy = -3969.48152512913
Entering product-state fixed-point CI iteration
Cycle 0: max grad = 4.970847e+02 ; sigma = 0.000000e+00
Cycle 1: max grad = 2.700269e-06 ; sigma = 6.294698e-11
Product_state fixed-point CI iteration converged after 1 cycles
Entering product-state fixed-point CI iteration
Cycle 0: max grad = 4.971059e+02 ; sigma = 0.000000e+00
Cycle 1: max grad = 2.097169e-06 ; sigma = 5.987033e-11
Product_state fixed-point CI iteration converged after 1 cycles
Entering product-state fixed-point CI iteration
Cycle 0: max grad = 4.971151e+02 ; sigma = 0.000000e+00
Cycle 1: max grad = 2.180971e-06 ; sigma = 5.864820e-11
Product_state fixed-point CI iteration converged after 1 cycles
Entering product-state fixed-point CI iteration
Cycle 0: max grad = 4.971120e+02 ; sigma = 0.000000e+00
Cycle 1: max grad = 1.959105e-06 ; sigma = 5.903189e-11
Product_state fixed-point CI iteration converged after 1 cycles
Entering product-state fixed-point CI iteration
Cycle 0: max grad = 4.970968e+02 ; sigma = 0.000000e+00
Cycle 1: max grad = 2.208682e-06 ; sigma = 6.117062e-11
Product_state fixed-point CI iteration converged after 1 cycles
Entering product-state fixed-point CI iteration
Cycle 0: max grad = 2.153244e+02 ; sigma = 0.000000e+00
Cycle 1: max grad = 1.955514e-11 ; sigma = 7.105427e-15
Product_state fixed-point CI iteration converged after 1 cycles
Entering product-state fixed-point CI iteration
Cycle 0: max grad = 4.647294e+02 ; sigma = 0.000000e+00
Cycle 1: max grad = 9.538760e-07 ; sigma = 9.242740e-11
Product_state fixed-point CI iteration converged after 1 cycles
Entering product-state fixed-point CI iteration
Cycle 0: max grad = 2.528838e+02 ; sigma = 0.000000e+00
Cycle 1: max grad = 1.894775e-06 ; sigma = 6.600942e-11
Product_state fixed-point CI iteration converged after 1 cycles
Entering product-state fixed-point CI iteration
Cycle 0: max grad = 2.700745e+02 ; sigma = 0.000000e+00
Cycle 1: max grad = 1.152263e-03 ; sigma = 1.180172e-03
Cycle 2: max grad = 5.403829e-06 ; sigma = 1.799095e-07
Cycle 3: max grad = 1.612905e-06 ; sigma = 1.089973e-11
Product_state fixed-point CI iteration converged after 3 cycles
Entering product-state fixed-point CI iteration
Cycle 0: max grad = 2.691102e+02 ; sigma = 0.000000e+00
Cycle 1: max grad = 1.822321e-04 ; sigma = 1.215504e-03
Cycle 2: max grad = 1.623168e-06 ; sigma = 4.569067e-07
Cycle 3: max grad = 1.609467e-06 ; sigma = 2.080114e-11
Product_state fixed-point CI iteration converged after 3 cycles
Entering product-state fixed-point CI iteration
Cycle 0: max grad = 2.152125e+02 ; sigma = 0.000000e+00
Cycle 1: max grad = 4.057250e-03 ; sigma = 3.282707e-11
Cycle 2: max grad = 9.919211e-06 ; sigma = 9.947598e-14
Product_state fixed-point CI iteration converged after 2 cycles
Entering product-state fixed-point CI iteration
Cycle 0: max grad = 2.153052e+02 ; sigma = 0.000000e+00
Cycle 1: max grad = 1.854252e-11 ; sigma = 4.263256e-14
Product_state fixed-point CI iteration converged after 1 cycles
Entering product-state fixed-point CI iteration
Cycle 0: max grad = 4.645004e+02 ; sigma = 0.000000e+00
Cycle 1: max grad = 1.807822e-06 ; sigma = 9.060841e-11
Product_state fixed-point CI iteration converged after 1 cycles
Entering product-state fixed-point CI iteration
Cycle 0: max grad = 2.528670e+02 ; sigma = 0.000000e+00
Cycle 1: max grad = 1.263763e-06 ; sigma = 8.444090e-11
Product_state fixed-point CI iteration converged after 1 cycles
Entering product-state fixed-point CI iteration
Cycle 0: max grad = 4.286045e+02 ; sigma = 0.000000e+00
Cycle 1: max grad = 8.945889e-04 ; sigma = 1.431940e-03
Cycle 2: max grad = 1.789730e-06 ; sigma = 5.088457e-07
Cycle 3: max grad = 2.337291e-06 ; sigma = 3.344525e-10
Cycle 4: max grad = 1.348103e-06 ; sigma = 5.165646e-12
Product_state fixed-point CI iteration converged after 4 cycles
Entering product-state fixed-point CI iteration
Cycle 0: max grad = 2.660002e+02 ; sigma = 0.000000e+00
Cycle 1: max grad = 1.650894e-04 ; sigma = 1.541943e-03
Cycle 2: max grad = 1.324966e-06 ; sigma = 2.170458e-07
Cycle 3: max grad = 1.103054e-06 ; sigma = 1.687184e-11
Product_state fixed-point CI iteration converged after 3 cycles
Entering product-state fixed-point CI iteration
Cycle 0: max grad = 2.152037e+02 ; sigma = 0.000000e+00
Cycle 1: max grad = 2.347048e-03 ; sigma = 2.378897e-11
Cycle 2: max grad = 2.899845e-05 ; sigma = 2.131628e-13
Product_state fixed-point CI iteration converged after 2 cycles
Entering product-state fixed-point CI iteration
Cycle 0: max grad = 2.152945e+02 ; sigma = 0.000000e+00
Cycle 1: max grad = 1.808932e-11 ; sigma = 3.552714e-15
Product_state fixed-point CI iteration converged after 1 cycles
Entering product-state fixed-point CI iteration
Cycle 0: max grad = 4.644609e+02 ; sigma = 0.000000e+00
Cycle 1: max grad = 1.001541e-06 ; sigma = 7.778311e-11
Product_state fixed-point CI iteration converged after 1 cycles
Entering product-state fixed-point CI iteration
Cycle 0: max grad = 2.528637e+02 ; sigma = 0.000000e+00
Cycle 1: max grad = 1.402277e-06 ; sigma = 9.212187e-11
Product_state fixed-point CI iteration converged after 1 cycles
Entering product-state fixed-point CI iteration
Cycle 0: max grad = 4.287602e+02 ; sigma = 0.000000e+00
Cycle 1: max grad = 9.041216e-04 ; sigma = 1.484257e-03
Cycle 2: max grad = 1.088334e-05 ; sigma = 8.707173e-07
Cycle 3: max grad = 3.388953e-06 ; sigma = 8.446790e-10
Cycle 4: max grad = 1.747525e-06 ; sigma = 1.055156e-11
Product_state fixed-point CI iteration converged after 4 cycles
Entering product-state fixed-point CI iteration
Cycle 0: max grad = 2.653675e+02 ; sigma = 0.000000e+00
Cycle 1: max grad = 1.618148e-04 ; sigma = 1.608640e-03
Cycle 2: max grad = 1.535943e-06 ; sigma = 1.826411e-07
Cycle 3: max grad = 1.010413e-06 ; sigma = 1.615064e-11
Product_state fixed-point CI iteration converged after 3 cycles
Entering product-state fixed-point CI iteration
Cycle 0: max grad = 4.298457e+02 ; sigma = 0.000000e+00
Cycle 1: max grad = 8.081563e-04 ; sigma = 2.192024e-11
Cycle 2: max grad = 6.633410e-06 ; sigma = 1.634248e-13
Product_state fixed-point CI iteration converged after 2 cycles
Entering product-state fixed-point CI iteration
Cycle 0: max grad = 2.152924e+02 ; sigma = 0.000000e+00
Cycle 1: max grad = 1.800836e-11 ; sigma = 1.421085e-14
Product_state fixed-point CI iteration converged after 1 cycles
Entering product-state fixed-point CI iteration
Cycle 0: max grad = 4.645901e+02 ; sigma = 0.000000e+00
Cycle 1: max grad = 1.716509e-06 ; sigma = 1.217870e-11
Product_state fixed-point CI iteration converged after 1 cycles
Entering product-state fixed-point CI iteration
Cycle 0: max grad = 2.528736e+02 ; sigma = 0.000000e+00
Cycle 1: max grad = 1.324105e-06 ; sigma = 7.361223e-11
Product_state fixed-point CI iteration converged after 1 cycles
Entering product-state fixed-point CI iteration
Cycle 0: max grad = 4.282847e+02 ; sigma = 0.000000e+00
Cycle 1: max grad = 1.268560e-03 ; sigma = 1.329262e-03
Cycle 2: max grad = 8.597623e-06 ; sigma = 9.445971e-08
Cycle 3: max grad = 1.935503e-06 ; sigma = 1.822542e-11
Product_state fixed-point CI iteration converged after 3 cycles
Entering product-state fixed-point CI iteration
Cycle 0: max grad = 2.672553e+02 ; sigma = 0.000000e+00
Cycle 1: max grad = 1.718022e-04 ; sigma = 1.409890e-03
Cycle 2: max grad = 1.338201e-06 ; sigma = 2.990504e-07
Cycle 3: max grad = 1.319057e-06 ; sigma = 1.856648e-11
Product_state fixed-point CI iteration converged after 3 cycles
Entering product-state fixed-point CI iteration
Cycle 0: max grad = 2.152073e+02 ; sigma = 0.000000e+00
Cycle 1: max grad = 9.461102e-04 ; sigma = 2.756195e-11
Cycle 2: max grad = 3.343341e-04 ; sigma = 2.273737e-13
Cycle 3: max grad = 9.037701e-06 ; sigma = 1.705303e-13
Product_state fixed-point CI iteration converged after 3 cycles
Entering product-state fixed-point CI iteration
Cycle 0: max grad = 2.152988e+02 ; sigma = 0.000000e+00
Cycle 1: max grad = 1.825762e-11 ; sigma = 7.815970e-14
Product_state fixed-point CI iteration converged after 1 cycles
Entering product-state fixed-point CI iteration
Cycle 0: max grad = 2.528977e+02 ; sigma = 0.000000e+00
Cycle 1: max grad = 1.281530e-06 ; sigma = 6.884804e-11
Product_state fixed-point CI iteration converged after 1 cycles
Entering product-state fixed-point CI iteration
Cycle 0: max grad = 4.276894e+02 ; sigma = 0.000000e+00
Cycle 1: max grad = 5.976375e-04 ; sigma = 1.081446e-11
Cycle 2: max grad = 3.055024e-06 ; sigma = 0.000000e+00
Product_state fixed-point CI iteration converged after 2 cycles
Entering product-state fixed-point CI iteration
Cycle 0: max grad = 2.153138e+02 ; sigma = 0.000000e+00
Cycle 1: max grad = 1.896427e-11 ; sigma = 3.552714e-15
Product_state fixed-point CI iteration converged after 1 cycles
LASSCF state-average energy = -3971.8901852523
LASSCF state 0 energy = -3971.8901852523
LASSCF state 1 energy = -3971.89049467751
LASSCF state 2 energy = -3971.89062733986
LASSCF state 3 energy = -3971.89058311563
LASSCF state 4 energy = -3971.89036204611
LASSCF state 5 energy = -3969.48093908276
LASSCF state 6 energy = -3970.98995513768
LASSCF state 7 energy = -3969.56927764107
LASSCF state 8 energy = -3971.51229990126
LASSCF state 9 energy = -3969.35154310363
LASSCF state 10 energy = -3971.64263382626
LASSCF state 11 energy = -3969.48199401442
LASSCF state 12 energy = -3970.99011278572
LASSCF state 13 energy = -3969.56971596372
LASSCF state 14 energy = -3971.51289705149
LASSCF state 15 energy = -3969.3522756948
LASSCF state 16 energy = -3971.6431247517
LASSCF state 17 energy = -3969.48258018069
LASSCF state 18 energy = -3970.9901443395
LASSCF state 19 energy = -3969.56980395125
LASSCF state 20 energy = -3971.51302003566
LASSCF state 21 energy = -3969.35242468793
LASSCF state 22 energy = -3971.64322411905
LASSCF state 23 energy = -3969.48269742185
LASSCF state 24 energy = -3970.99004970238
LASSCF state 25 energy = -3969.56954031221
LASSCF state 26 energy = -3971.51265466075
LASSCF state 27 energy = -3969.35198011903
LASSCF state 28 energy = -3971.64292719396
LASSCF state 29 energy = -3969.48234570627
LASSCF state 30 energy = -3969.56892890989
LASSCF state 31 energy = -3971.6422482803
LASSCF state 32 energy = -3969.48152512913
LASSI op_o0 memory check: 466204.408704 MB needed of 120126.1568 MB available (128000 MB max)
Symmetry analysis of 33 LAS rootspaces:
 ix            Energy  <S**2>  Neleca  Nelecb  Nelec   Wfnsym
  0  -3971.8901852523   4.750       6       5      11       A
  1  -3971.8904946775  11.750       6       5      11       A
  2  -3971.8906273399  14.750       6       5      11       A
  3  -3971.8905831156  13.750       6       5      11       A
  4  -3971.8903620461   8.750       6       5      11       A
  5  -3969.4809390828   5.750       6       5      11       A
  6  -3970.9899551377   3.750       6       5      11       A
  7  -3969.5692776411   8.750       6       5      11       A
  8  -3971.5122999013   3.750       6       5      11       A
  9  -3969.3515431036   9.750       6       5      11       A
 10  -3971.6426338263   8.750       6       5      11       A
 11  -3969.4819940144  14.750       6       5      11       A
 12  -3970.9901127857   8.750       6       5      11       A
 13  -3969.5697159637  13.750       6       5      11       A
 14  -3971.5128970515   8.750       6       5      11       A
 15  -3969.3522756948  14.750       6       5      11       A
 16  -3971.6431247517  13.750       6       5      11       A
 17  -3969.4825801807  19.750       6       5      11       A
 18  -3970.9901443395   9.750       6       5      11       A
 19  -3969.5698039513  14.750       6       5      11       A
 20  -3971.5130200357   9.750       6       5      11       A
 21  -3969.3524246879  15.750       6       5      11       A
 22  -3971.6432241191  14.750       6       5      11       A
 23  -3969.4826974219  20.750       6       5      11       A
 24  -3970.9900497024   6.750       6       5      11       A
 25  -3969.5695403122  11.750       6       5      11       A
 26  -3971.5126546607   6.750       6       5      11       A
 27  -3969.3519801190  12.750       6       5      11       A
 28  -3971.6429271940  11.750       6       5      11       A
 29  -3969.4823457063  17.750       6       5      11       A
 30  -3969.5689289099   4.750       6       5      11       A
 31  -3971.6422482803   4.750       6       5      11       A
 32  -3969.4815251291  10.750       6       5      11       A
Build + diag H matrix LASSI symmetry block 0
['neleca', 'nelecb', 'irrep'] = (6, 5, 0)
(33 rootspaces; 1617 states)
LASSI eigenvalues (1617 total):
 ix            Energy  <S**2>  Neleca  Nelecb  Wfnsym
  0  -3971.8913109287  24.750       6       5       A
  1  -3971.8912386636  15.744       6       5       A
  2  -3971.8911911067   8.701       6       5       A
  3  -3971.8911614857   3.659       6       5       A
  4  -3971.8911405147   0.896       6       5       A
  5  -3971.8716096844   0.750       6       5       A
  6  -3971.8715663236   3.750       6       5       A
  7  -3971.8714934726   8.750       6       5       A
  8  -3971.8713907723  15.750       6       5       A
  9  -3971.8712579324  24.750       6       5       A
 10  -3971.8702466253  24.750       6       5       A
 11  -3971.8701385389  15.745       6       5       A
 12  -3971.8700478823   8.724       6       5       A
 13  -3971.8699808966   3.667       6       5       A
 14  -3971.8699414079   0.864       6       5       A
 15  -3971.8472861331  24.750       6       5       A
 16  -3971.8467417309  15.750       6       5       A
 17  -3971.8463207706   8.749       6       5       A
 18  -3971.8460195388   3.746       6       5       A
 19  -3971.8458328212   0.755       6       5       A
 20  -3971.8246013586  24.750       6       5       A
 21  -3971.8241879923  15.750       6       5       A
 22  -3971.8238661179   8.750       6       5       A
 23  -3971.8236361406   3.750       6       5       A
 24  -3971.8234986671   0.750       6       5       A
 25  -3971.6435922292  24.750       6       5       A
 26  -3971.6428989506  15.750       6       5       A
 27  -3971.6423901049   8.750       6       5       A
 28  -3971.6420431996   3.750       6       5       A
 29  -3971.6418417289   0.750       6       5       A
 30  -3971.6416932333  24.750       6       5       A
 31  -3971.6405320075  15.750       6       5       A
 32  -3971.6396227570   8.750       6       5       A
 33  -3971.6389699699   3.750       6       5       A
 34  -3971.6385769423   0.750       6       5       A
 35  -3971.6357250558  24.750       6       5       A
 36  -3971.6345299092  15.750       6       5       A
 37  -3971.6335906960   8.750       6       5       A
 38  -3971.6329148935   3.750       6       5       A
 39  -3971.6325075018   0.750       6       5       A
 40  -3971.6269241236  24.750       6       5       A
 41  -3971.6265049008  15.750       6       5       A
 42  -3971.6261450877   8.750       6       5       A
 43  -3971.6258693202   3.750       6       5       A
 44  -3971.6256961895   0.750       6       5       A
 45  -3971.6008157099  24.750       6       5       A
 46  -3971.5994919502  15.750       6       5       A
 47  -3971.5984580094   8.750       6       5       A
 48  -3971.5977170780   3.750       6       5       A
 49  -3971.5972715307   0.750       6       5       A
 50  -3971.5139893519  15.750       6       5       A
 51  -3971.5132583492   8.750       6       5       A
 52  -3971.5127714416   3.750       6       5       A
 53  -3971.5124927549   0.750       6       5       A
 54  -3971.5118122557  15.750       6       5       A
 55  -3971.5115032295  15.750       6       5       A
 56  -3971.5111806934   8.750       6       5       A
 57  -3971.5107426635   3.750       6       5       A
 58  -3971.5104844838   0.750       6       5       A
 59  -3971.5102215370   8.750       6       5       A
 60  -3971.5098918104  15.750       6       5       A
 61  -3971.5095245362  15.750       6       5       A
 62  -3971.5093496479   3.750       6       5       A
 63  -3971.5091419505   8.750       6       5       A
 64  -3971.5088458595   0.750       6       5       A
 65  -3971.5088206738   8.750       6       5       A
 66  -3971.5086277821   3.750       6       5       A
 67  -3971.5083317483   3.747       6       5       A
 68  -3971.5083279839   0.753       6       5       A
 69  -3971.5080429227   0.750       6       5       A
 70  -3971.5076128936  15.750       6       5       A
 71  -3971.5065441348   8.750       6       5       A
 72  -3971.5057481789   3.750       6       5       A
 73  -3971.5055169177  15.750       6       5       A
 74  -3971.5052552297   0.750       6       5       A
 75  -3971.5042076646   8.750       6       5       A
 76  -3971.5035226514  15.750       6       5       A
 77  -3971.5033152014   3.750       6       5       A
 78  -3971.5027983309   0.750       6       5       A
 79  -3971.5027448764   8.750       6       5       A
 80  -3971.5022038837   3.750       6       5       A
 81  -3971.5018844158   0.750       6       5       A
 82  -3971.5016675241  15.750       6       5       A
 83  -3971.5005700079   8.750       6       5       A
 84  -3971.4997572754   3.750       6       5       A
 85  -3971.4992557679   0.750       6       5       A
 86  -3971.4974561794  15.750       6       5       A
 87  -3971.4968349838   8.750       6       5       A
 88  -3971.4963740754   3.750       6       5       A
 89  -3971.4960915414   0.750       6       5       A
 90  -3971.4958654814  15.750       6       5       A
 91  -3971.4954307897   8.750       6       5       A
 92  -3971.4951564205   3.750       6       5       A
 93  -3971.4950006644   0.750       6       5       A
 94  -3971.4943252209  15.750       6       5       A
 95  -3971.4942501187  15.750       6       5       A
 96  -3971.4936290080   8.750       6       5       A
 97  -3971.4934565944  15.750       6       5       A
 98  -3971.4934114396   8.750       6       5       A
 99  -3971.4931043808   3.750       6       5       A
Remaining 1517 eigenvalues truncated; increase verbosity to print them all
Natural-orbital analysis for state(s) [0, 1, 2, 3, 4]
LASSI op_o0 memory check: 466204.408704 MB needed of 118050.930688 MB available (128000 MB max)
Delocalized natural orbitals do not reflect LAS fragmentation
Natural occ [1.98718993 1.02865371 1.00437737 1.00338773 1.00041335 0.99778165
 0.99361939 0.99080316 0.98966251 0.96528726 0.01195223 0.0042255
 0.00406941 0.00389646 0.00347716 0.0022925  0.00228505 0.00227009
 0.00224455 0.00211097]
Natural orbital (expansion on AOs) in CAS space
               #1        #2        #3        #4        #5       
0 O 1s          -0.00011  -0.00020   0.00030   0.00020  -0.00019
0 O 2s           0.00160   0.00117   0.00180  -0.00099   0.00088
0 O 3s           0.00057   0.00043   0.00043  -0.00039   0.00032
0 O 4s           0.00478   0.00436  -0.00240  -0.00249   0.00347
0 O 2px          0.00476   0.00005   0.00557   0.00039  -0.00053
0 O 2py          0.00048  -0.00153   0.00141   0.00237  -0.00114
0 O 2pz          0.00216   0.00111  -0.00217  -0.00210   0.00065
0 O 3px          0.00569   0.00028   0.00670   0.00054  -0.00031
0 O 3py          0.00041  -0.00160   0.00142   0.00241  -0.00131
0 O 3pz          0.00284   0.00124  -0.00260  -0.00229   0.00061
0 O 4px          0.00791  -0.00029   0.00692   0.00055  -0.00158
0 O 4py          0.00002  -0.00362   0.00266   0.00529  -0.00195
0 O 4pz          0.00399   0.00194  -0.00165  -0.00474   0.00130
0 O 3dxy         0.00012   0.00002   0.00003  -0.00004  -0.00002
0 O 3dyz         0.00007   0.00002   0.00006  -0.00001   0.00002
0 O 3dz^2       -0.00003   0.00002  -0.00008  -0.00002  -0.00001
0 O 3dxz        -0.00004   0.00002   0.00001  -0.00001   0.00006
0 O 3dx2-y2      0.00004   0.00003  -0.00006  -0.00004   0.00001
0 O 4dxy         0.00026  -0.00016  -0.00018   0.00006  -0.00031
0 O 4dyz         0.00011   0.00021   0.00024  -0.00017   0.00036
0 O 4dz^2       -0.00016  -0.00016  -0.00016   0.00021  -0.00016
0 O 4dxz         0.00015  -0.00000   0.00038  -0.00014   0.00015
0 O 4dx2-y2     -0.00017  -0.00003  -0.00016   0.00013  -0.00015
0 O 4f-3         0.00003   0.00003  -0.00000  -0.00006   0.00004
0 O 4f-2         0.00003   0.00000  -0.00006  -0.00002  -0.00004
0 O 4f-1        -0.00001   0.00003   0.00005  -0.00005   0.00005
0 O 4f+0         0.00001   0.00001   0.00006   0.00000   0.00003
0 O 4f+1        -0.00001   0.00000  -0.00003   0.00001  -0.00000
0 O 4f+2         0.00000  -0.00001   0.00010   0.00001   0.00004
0 O 4f+3         0.00003  -0.00001  -0.00005   0.00000  -0.00007
1 O 1s           0.00030   0.00007   0.00018   0.00020  -0.00001
1 O 2s           0.00691  -0.00832  -0.00199   0.01054  -0.02032
1 O 3s           0.00194  -0.00240  -0.00067   0.00292  -0.00592
1 O 4s           0.01120  -0.01653  -0.00637   0.01560  -0.03604
1 O 2px         -0.00521  -0.00826  -0.00366   0.01228  -0.01072
1 O 2py         -0.00724  -0.00467   0.00689   0.00843   0.00163
1 O 2pz         -0.00494   0.00888  -0.00900  -0.01172   0.01503
1 O 3px         -0.00590  -0.01085  -0.00457   0.01588  -0.01378
1 O 3py         -0.00812  -0.00601   0.00855   0.01082   0.00085
1 O 3pz         -0.00600   0.01177  -0.01112  -0.01526   0.01941
1 O 4px         -0.01106  -0.01202  -0.00417   0.01542  -0.01551
1 O 4py         -0.01201  -0.00796   0.00629   0.01280   0.00036
1 O 4pz         -0.00708   0.01305  -0.01376  -0.01526   0.02233
1 O 3dxy         0.00023  -0.00002  -0.00045  -0.00009  -0.00044
1 O 3dyz        -0.00086  -0.00006   0.00021   0.00014   0.00050
1 O 3dz^2       -0.00066   0.00022  -0.00054  -0.00017   0.00028
1 O 3dxz         0.00002  -0.00042  -0.00011   0.00044  -0.00077
1 O 3dx2-y2      0.00051   0.00032   0.00012  -0.00038   0.00015
1 O 4dxy         0.00038  -0.00016  -0.00117  -0.00050  -0.00111
1 O 4dyz        -0.00243  -0.00020   0.00053   0.00032   0.00132
1 O 4dz^2       -0.00269   0.00054  -0.00191  -0.00030   0.00055
1 O 4dxz        -0.00055  -0.00103   0.00002   0.00120  -0.00156
1 O 4dx2-y2      0.00215   0.00108   0.00084  -0.00142   0.00040
1 O 4f-3         0.00024   0.00013   0.00004  -0.00029   0.00006
1 O 4f-2        -0.00012  -0.00017   0.00010   0.00031  -0.00022
1 O 4f-1         0.00007   0.00016  -0.00032  -0.00015   0.00013
1 O 4f+0         0.00040  -0.00003   0.00008  -0.00004  -0.00010
1 O 4f+1        -0.00010   0.00013   0.00004  -0.00008   0.00023
1 O 4f+2         0.00014  -0.00009  -0.00015   0.00001  -0.00025
1 O 4f+3        -0.00006   0.00004   0.00023   0.00003   0.00014
2 C 1s          -0.00026   0.00016   0.00043  -0.00001   0.00063
2 C 2s          -0.00604   0.00113   0.00502  -0.00001   0.00839
2 C 3s          -0.00884  -0.00156   0.00772   0.00150   0.00423
2 C 2px         -0.01695  -0.00092  -0.00304   0.00278   0.00723
2 C 2py          0.00307  -0.00403  -0.00457   0.00360  -0.01139
2 C 2pz         -0.00534  -0.00134  -0.00963   0.00168  -0.00490
2 C 3px         -0.01326   0.00023  -0.00440   0.00001   0.00336
2 C 3py         -0.00037  -0.00383  -0.00178   0.00603  -0.00474
2 C 3pz         -0.00497  -0.00134  -0.00521   0.00362  -0.00217
2 C 3dxy         0.00216   0.00013   0.00116  -0.00026  -0.00074
2 C 3dyz         0.00083  -0.00029   0.00134   0.00022  -0.00003
2 C 3dz^2        0.00093  -0.00129   0.00109   0.00176  -0.00183
2 C 3dxz        -0.00031   0.00106  -0.00030  -0.00149   0.00158
2 C 3dx2-y2     -0.00063  -0.00206   0.00038   0.00293  -0.00237
3 H 1s           0.00137  -0.00459   0.00232   0.00639  -0.00725
3 H 2s           0.00134  -0.00523   0.00320   0.00732  -0.00903
3 H 2px         -0.00050   0.00001   0.00003   0.00002   0.00028
3 H 2py          0.00000  -0.00013  -0.00007   0.00002  -0.00033
3 H 2pz         -0.00000  -0.00010  -0.00026   0.00004  -0.00024
4 O 1s           0.00022   0.00009  -0.00005   0.00005  -0.00003
4 O 2s          -0.00048  -0.00680  -0.00985   0.00808  -0.02715
4 O 3s          -0.00027  -0.00198  -0.00270   0.00220  -0.00761
4 O 4s          -0.00309  -0.01081  -0.01491   0.01125  -0.04031
4 O 2px          0.00045  -0.00892   0.00510  -0.00681  -0.00593
4 O 2py          0.00058   0.00022   0.01752  -0.01580   0.02616
4 O 2pz         -0.00002  -0.00075  -0.00716   0.01013  -0.01903
4 O 3px          0.00064  -0.01096   0.00652  -0.00877  -0.00659
4 O 3py          0.00045   0.00024   0.02284  -0.02057   0.03345
4 O 3pz         -0.00008  -0.00114  -0.00973   0.01323  -0.02496
4 O 4px         -0.00084  -0.00921   0.00809  -0.00948  -0.00126
4 O 4py          0.00411   0.00024   0.02087  -0.01820   0.03183
4 O 4pz         -0.00137  -0.00129  -0.00798   0.01228  -0.02545
4 O 3dxy         0.00002  -0.00044  -0.00017   0.00002  -0.00092
4 O 3dyz        -0.00002  -0.00005  -0.00015   0.00019  -0.00047
4 O 3dz^2        0.00001  -0.00018  -0.00015   0.00000  -0.00039
4 O 3dxz        -0.00004   0.00023  -0.00005  -0.00004   0.00040
4 O 3dx2-y2     -0.00006   0.00023  -0.00044   0.00035  -0.00017
4 O 4dxy        -0.00004  -0.00072  -0.00082   0.00018  -0.00180
4 O 4dyz         0.00002   0.00027  -0.00022   0.00051  -0.00046
4 O 4dz^2       -0.00016  -0.00047  -0.00025   0.00012  -0.00070
4 O 4dxz         0.00005   0.00070   0.00011  -0.00036   0.00127
4 O 4dx2-y2      0.00004   0.00084  -0.00149   0.00144  -0.00050
4 O 4f-3        -0.00003   0.00018   0.00013  -0.00008   0.00040
4 O 4f-2         0.00002  -0.00014   0.00007  -0.00017   0.00013
4 O 4f-1         0.00001  -0.00003  -0.00011   0.00010  -0.00027
4 O 4f+0         0.00001   0.00001  -0.00005   0.00003   0.00001
4 O 4f+1        -0.00001   0.00019  -0.00001   0.00004   0.00014
4 O 4f+2         0.00002  -0.00003  -0.00015   0.00018  -0.00035
4 O 4f+3         0.00004  -0.00016   0.00026  -0.00031   0.00017
5 O 1s          -0.00012   0.00022  -0.00009   0.00015  -0.00008
5 O 2s           0.00061   0.00087   0.00150  -0.00140   0.00189
5 O 3s           0.00023   0.00018   0.00044  -0.00044   0.00059
5 O 4s           0.00384  -0.00035   0.00393  -0.00169   0.00050
5 O 2px          0.00010  -0.00034   0.00124  -0.00239   0.00152
5 O 2py         -0.00134   0.00078  -0.00062   0.00095   0.00232
5 O 2pz          0.00069   0.00180  -0.00268   0.00230  -0.00217
5 O 3px          0.00030  -0.00033   0.00117  -0.00272   0.00162
5 O 3py         -0.00169   0.00097  -0.00135   0.00141   0.00242
5 O 3pz          0.00059   0.00221  -0.00302   0.00260  -0.00229
5 O 4px          0.00047  -0.00039   0.00265  -0.00402   0.00131
5 O 4py         -0.00213   0.00112   0.00039   0.00040   0.00428
5 O 4pz          0.00226   0.00315  -0.00405   0.00383  -0.00351
5 O 3dxy        -0.00000  -0.00003   0.00002  -0.00005  -0.00000
5 O 3dyz         0.00002   0.00005   0.00002  -0.00003   0.00007
5 O 3dz^2       -0.00002  -0.00003  -0.00002  -0.00002   0.00001
5 O 3dxz         0.00001  -0.00001   0.00006   0.00001   0.00002
5 O 3dx2-y2      0.00000   0.00005  -0.00003  -0.00000   0.00002
5 O 4dxy         0.00002  -0.00003  -0.00010   0.00031  -0.00046
5 O 4dyz         0.00016   0.00024   0.00019  -0.00010   0.00053
5 O 4dz^2        0.00004   0.00010  -0.00031   0.00017  -0.00028
5 O 4dxz         0.00002   0.00007  -0.00004   0.00001   0.00018
5 O 4dx2-y2      0.00029   0.00021   0.00035  -0.00029   0.00045
5 O 4f-3        -0.00002  -0.00002  -0.00003   0.00002  -0.00008
5 O 4f-2         0.00002   0.00006   0.00001  -0.00001   0.00008
5 O 4f-1        -0.00000  -0.00002   0.00000  -0.00000  -0.00001
5 O 4f+0         0.00001   0.00000   0.00004  -0.00004   0.00003
5 O 4f+1        -0.00001  -0.00004  -0.00004   0.00003  -0.00008
5 O 4f+2         0.00001   0.00002  -0.00002   0.00007  -0.00004
5 O 4f+3         0.00002   0.00003   0.00005  -0.00007   0.00011
6 C 1s           0.00007   0.00040  -0.00007  -0.00029   0.00041
6 C 2s           0.00001   0.00565   0.00103  -0.00053   0.00951
6 C 3s          -0.00352   0.00244  -0.00036   0.00306   0.00769
6 C 2px          0.00047   0.00620   0.00605  -0.00260   0.01640
6 C 2py          0.00049  -0.00757   0.00103  -0.00063  -0.01237
6 C 2pz          0.00020   0.00029   0.00419  -0.00165   0.00195
6 C 3px         -0.00106   0.00014   0.00455  -0.00427   0.00435
6 C 3py          0.00246  -0.00209  -0.00219   0.00056  -0.01039
6 C 3pz         -0.00075  -0.00006   0.00325  -0.00097   0.00532
6 C 3dxy         0.00034  -0.00102   0.00103  -0.00103  -0.00063
6 C 3dyz        -0.00013   0.00055   0.00064  -0.00116   0.00242
6 C 3dz^2        0.00020  -0.00024  -0.00072   0.00055  -0.00154
6 C 3dxz         0.00016  -0.00002  -0.00086   0.00134  -0.00229
6 C 3dx2-y2     -0.00022  -0.00013   0.00289  -0.00304   0.00454
7 H 1s           0.00031  -0.00128  -0.00636   0.00610  -0.01287
7 H 2s          -0.00124  -0.00028  -0.00472   0.00597  -0.00825
7 H 2px          0.00011   0.00018   0.00004   0.00007   0.00033
7 H 2py          0.00003  -0.00019   0.00019  -0.00003  -0.00011
7 H 2pz         -0.00005  -0.00001   0.00003  -0.00004  -0.00006
8 O 1s          -0.00007  -0.00036  -0.00021  -0.00011  -0.00006
8 O 2s          -0.00875  -0.00730   0.00096  -0.02240   0.01640
8 O 3s          -0.00264  -0.00191   0.00034  -0.00654   0.00477
8 O 4s          -0.02112  -0.01042   0.00124  -0.03624   0.02576
8 O 2px          0.00510   0.00620   0.00676   0.01206  -0.00615
8 O 2py          0.00902  -0.01108  -0.00237  -0.00179   0.01666
8 O 2pz         -0.00539   0.00970  -0.00797   0.01133  -0.00916
8 O 3px          0.00598   0.00834   0.00819   0.01540  -0.00861
8 O 3py          0.01031  -0.01445  -0.00283  -0.00360   0.02198
8 O 3pz         -0.00601   0.01300  -0.01026   0.01510  -0.01258
8 O 4px          0.00477   0.00778   0.00727   0.01500  -0.00914
8 O 4py          0.01315  -0.01551  -0.00452  -0.00485   0.02283
8 O 4pz         -0.01105   0.01138  -0.01208   0.01592  -0.01275
8 O 3dxy         0.00032  -0.00056  -0.00028   0.00006   0.00052
8 O 3dyz         0.00043  -0.00028  -0.00007  -0.00003   0.00035
8 O 3dz^2       -0.00048   0.00002  -0.00064  -0.00015   0.00001
8 O 3dxz         0.00046   0.00025  -0.00044   0.00090  -0.00045
8 O 3dx2-y2      0.00097   0.00018   0.00034   0.00081  -0.00011
8 O 4dxy         0.00040  -0.00183  -0.00086  -0.00014   0.00248
8 O 4dyz         0.00192  -0.00108  -0.00018   0.00007   0.00083
8 O 4dz^2       -0.00095   0.00026  -0.00262  -0.00001  -0.00022
8 O 4dxz         0.00101   0.00070  -0.00199   0.00253  -0.00175
8 O 4dx2-y2      0.00253   0.00068   0.00107   0.00226  -0.00073
8 O 4f-3         0.00054   0.00007   0.00021   0.00025   0.00014
8 O 4f-2         0.00009   0.00026  -0.00014   0.00041  -0.00030
8 O 4f-1        -0.00029   0.00017  -0.00033   0.00016  -0.00020
8 O 4f+0        -0.00001   0.00004   0.00023   0.00002  -0.00013
8 O 4f+1        -0.00026  -0.00001   0.00006  -0.00015  -0.00003
8 O 4f+2        -0.00053   0.00019  -0.00009   0.00003  -0.00022
8 O 4f+3        -0.00015   0.00032   0.00016   0.00015  -0.00052
9 O 1s          -0.00012   0.00022  -0.00009  -0.00015   0.00008
9 O 2s           0.00061   0.00087   0.00150   0.00140  -0.00189
9 O 3s           0.00023   0.00018   0.00044   0.00044  -0.00059
9 O 4s           0.00384  -0.00035   0.00393   0.00168  -0.00050
9 O 2px         -0.00014  -0.00079   0.00191   0.00288  -0.00214
9 O 2py         -0.00109   0.00123  -0.00128  -0.00145  -0.00170
9 O 2pz         -0.00103  -0.00136   0.00197   0.00121  -0.00222
9 O 3px          0.00007  -0.00089   0.00191   0.00326  -0.00228
9 O 3py         -0.00145   0.00152  -0.00208  -0.00196  -0.00176
9 O 3pz         -0.00109  -0.00169   0.00210   0.00127  -0.00233
9 O 4px         -0.00024  -0.00119   0.00368   0.00488  -0.00238
9 O 4py         -0.00142   0.00192  -0.00063  -0.00128  -0.00320
9 O 4pz         -0.00279  -0.00250   0.00313   0.00233  -0.00404
9 O 3dxy        -0.00000  -0.00003   0.00003   0.00004   0.00002
9 O 3dyz        -0.00001  -0.00003  -0.00001  -0.00004   0.00007
9 O 3dz^2       -0.00001  -0.00004  -0.00001  -0.00001   0.00001
9 O 3dxz        -0.00002  -0.00003  -0.00005   0.00002   0.00003
9 O 3dx2-y2     -0.00001   0.00003  -0.00005  -0.00001   0.00001
9 O 4dxy        -0.00002  -0.00009  -0.00011  -0.00029   0.00047
9 O 4dyz        -0.00024  -0.00030  -0.00008  -0.00001   0.00034
9 O 4dz^2       -0.00003   0.00001  -0.00033  -0.00014   0.00031
9 O 4dxz        -0.00008  -0.00010  -0.00025  -0.00023   0.00057
9 O 4dx2-y2      0.00022   0.00011   0.00029   0.00024  -0.00022
9 O 4f-3        -0.00002  -0.00002  -0.00003  -0.00004   0.00010
9 O 4f-2        -0.00000  -0.00004   0.00001  -0.00001   0.00004
9 O 4f-1         0.00002   0.00001   0.00002   0.00000  -0.00003
9 O 4f+0         0.00000   0.00002   0.00000  -0.00000  -0.00004
9 O 4f+1        -0.00001  -0.00003  -0.00006  -0.00007   0.00010
9 O 4f+2        -0.00003  -0.00005  -0.00002   0.00001   0.00007
9 O 4f+3         0.00001  -0.00000   0.00005   0.00008  -0.00008
10 O 1s          0.00022   0.00009  -0.00005  -0.00005   0.00003
10 O 2s         -0.00048  -0.00680  -0.00986  -0.00806   0.02715
10 O 3s         -0.00027  -0.00198  -0.00270  -0.00219   0.00761
10 O 4s         -0.00308  -0.01081  -0.01492  -0.01122   0.04031
10 O 2px         0.00046  -0.00836   0.00755   0.00990  -0.00051
10 O 2py         0.00057  -0.00034   0.01510   0.01266  -0.01974
10 O 2pz         0.00005   0.00318   0.01001   0.01177  -0.02631
10 O 3px         0.00066  -0.01022   0.00983   0.01281  -0.00176
10 O 3py         0.00043  -0.00051   0.01958   0.01647  -0.02510
10 O 3pz         0.00002   0.00411   0.01345   0.01540  -0.03396
10 O 4px        -0.00028  -0.00849   0.01079   0.01314  -0.00696
10 O 4py         0.00355  -0.00048   0.01823   0.01447  -0.02362
10 O 4pz         0.00261   0.00376   0.01087   0.01368  -0.03251
10 O 3dxy        0.00001  -0.00031  -0.00011   0.00004   0.00058
10 O 3dyz        0.00003   0.00014   0.00035   0.00026  -0.00078
10 O 3dz^2      -0.00000   0.00003  -0.00005   0.00010  -0.00019
10 O 3dxz        0.00006  -0.00043   0.00007   0.00008   0.00063
10 O 3dx2-y2    -0.00004   0.00016  -0.00035  -0.00028   0.00014
10 O 4dxy       -0.00001  -0.00050  -0.00065   0.00007   0.00114
10 O 4dyz        0.00005  -0.00014   0.00090   0.00086  -0.00113
10 O 4dz^2      -0.00011  -0.00008   0.00006   0.00031  -0.00044
10 O 4dxz       -0.00013  -0.00121   0.00003   0.00006   0.00160
10 O 4dx2-y2     0.00002   0.00051  -0.00135  -0.00128   0.00068
10 O 4f-3       -0.00002   0.00017   0.00005  -0.00003  -0.00019
10 O 4f-2       -0.00001   0.00002  -0.00022  -0.00027   0.00040
10 O 4f-1        0.00003  -0.00006  -0.00010  -0.00006   0.00021
10 O 4f+0        0.00001  -0.00016   0.00001   0.00004   0.00018
10 O 4f+1       -0.00000   0.00011  -0.00010  -0.00017   0.00021
10 O 4f+2       -0.00004   0.00019   0.00002  -0.00000  -0.00026
10 O 4f+3        0.00003  -0.00009   0.00024   0.00027  -0.00018
11 C 1s          0.00007   0.00040  -0.00007   0.00029  -0.00041
11 C 2s          0.00001   0.00565   0.00103   0.00053  -0.00951
11 C 3s         -0.00352   0.00244  -0.00037  -0.00305  -0.00769
11 C 2px         0.00042   0.00559   0.00471   0.00206  -0.01476
11 C 2py         0.00054  -0.00696   0.00237   0.00115   0.01072
11 C 2pz        -0.00018  -0.00402  -0.00523  -0.00205   0.00965
11 C 3px        -0.00072   0.00007   0.00341   0.00381  -0.00233
11 C 3py         0.00212  -0.00202  -0.00104  -0.00010   0.00837
11 C 3pz         0.00165  -0.00055  -0.00484  -0.00220   0.00893
11 C 3dxy        0.00036  -0.00105   0.00067   0.00039   0.00157
11 C 3dyz       -0.00003  -0.00005  -0.00116  -0.00164   0.00212
11 C 3dz^2       0.00024  -0.00030  -0.00135  -0.00164   0.00317
11 C 3dxz        0.00011  -0.00037  -0.00021   0.00015   0.00048
11 C 3dx2-y2    -0.00021  -0.00027   0.00273   0.00285  -0.00416
12 H 1s          0.00031  -0.00128  -0.00637  -0.00608   0.01287
12 H 2s         -0.00124  -0.00028  -0.00473  -0.00596   0.00825
12 H 2px         0.00012   0.00017   0.00004  -0.00007  -0.00033
12 H 2py         0.00002  -0.00018   0.00019   0.00003   0.00011
12 H 2pz         0.00002  -0.00009   0.00002  -0.00001   0.00006
13 O 1s          0.00030   0.00007   0.00018  -0.00020   0.00000
13 O 2s          0.00691  -0.00832  -0.00200  -0.01053   0.02032
13 O 3s          0.00194  -0.00240  -0.00067  -0.00292   0.00592
13 O 4s          0.01120  -0.01653  -0.00639  -0.01559   0.03604
13 O 2px        -0.00394  -0.01055  -0.00082  -0.01533   0.01434
13 O 2py        -0.00850  -0.00238   0.00402  -0.00539  -0.00525
13 O 2pz         0.00400  -0.00722   0.01116  -0.00979   0.01050
13 O 3px        -0.00435  -0.01388  -0.00107  -0.01984   0.01851
13 O 3py        -0.00967  -0.00299   0.00499  -0.00686  -0.00558
13 O 3pz         0.00493  -0.00954   0.01382  -0.01273   0.01392
13 O 4px        -0.00917  -0.01542  -0.00005  -0.01947   0.02098
13 O 4py        -0.01390  -0.00456   0.00212  -0.00875  -0.00584
13 O 4pz         0.00627  -0.01093   0.01553  -0.01340   0.01627
13 O 3dxy        0.00052  -0.00014  -0.00043  -0.00002   0.00076
13 O 3dyz        0.00078  -0.00008   0.00016  -0.00004   0.00038
13 O 3dz^2      -0.00016   0.00002  -0.00050  -0.00001   0.00028
13 O 3dxz       -0.00029   0.00036  -0.00032   0.00037  -0.00054
13 O 3dx2-y2     0.00070   0.00043   0.00008   0.00051  -0.00021
13 O 4dxy        0.00117  -0.00043  -0.00097   0.00020   0.00183
13 O 4dyz        0.00252  -0.00021   0.00047  -0.00025   0.00097
13 O 4dz^2      -0.00131   0.00007  -0.00155  -0.00022   0.00068
13 O 4dxz       -0.00095   0.00076  -0.00143   0.00088  -0.00098
13 O 4dx2-y2     0.00279   0.00133   0.00063   0.00172  -0.00044
13 O 4f-3        0.00032   0.00012  -0.00004   0.00034  -0.00001
13 O 4f-2        0.00020   0.00007  -0.00026   0.00018  -0.00003
13 O 4f-1        0.00024   0.00002  -0.00014   0.00002   0.00008
13 O 4f+0       -0.00016  -0.00001  -0.00021  -0.00005   0.00005
13 O 4f+1       -0.00020   0.00013  -0.00019   0.00011  -0.00019
13 O 4f+2       -0.00002   0.00021  -0.00007   0.00020  -0.00029
13 O 4f+3       -0.00003   0.00014   0.00018   0.00009  -0.00029
14 O 1s         -0.00011  -0.00020   0.00030  -0.00021   0.00019
14 O 2s          0.00160   0.00117   0.00180   0.00098  -0.00088
14 O 3s          0.00057   0.00043   0.00044   0.00039  -0.00032
14 O 4s          0.00478   0.00436  -0.00239   0.00250  -0.00347
14 O 2px         0.00401  -0.00031   0.00600  -0.00105   0.00073
14 O 2py         0.00124  -0.00116   0.00098  -0.00172   0.00094
14 O 2pz        -0.00316  -0.00146   0.00086  -0.00248   0.00076
14 O 3px         0.00471  -0.00013   0.00720  -0.00125   0.00052
14 O 3py         0.00139  -0.00120   0.00091  -0.00172   0.00110
14 O 3pz        -0.00406  -0.00165   0.00096  -0.00262   0.00084
14 O 4px         0.00652  -0.00095   0.00721  -0.00204   0.00194
14 O 4py         0.00142  -0.00296   0.00236  -0.00382   0.00158
14 O 4pz        -0.00583  -0.00270   0.00035  -0.00567   0.00130
14 O 3dxy        0.00009   0.00002   0.00002   0.00004   0.00001
14 O 3dyz       -0.00008  -0.00004  -0.00001  -0.00004   0.00002
14 O 3dz^2      -0.00008   0.00001  -0.00008   0.00001  -0.00001
14 O 3dxz        0.00003  -0.00001  -0.00003  -0.00000   0.00006
14 O 3dx2-y2     0.00003   0.00001  -0.00008   0.00004   0.00002
14 O 4dxy        0.00027  -0.00019  -0.00011  -0.00004   0.00032
14 O 4dyz       -0.00006  -0.00005  -0.00008  -0.00001   0.00012
14 O 4dz^2      -0.00014  -0.00020  -0.00004  -0.00017   0.00017
14 O 4dxz       -0.00009  -0.00013  -0.00040  -0.00020   0.00027
14 O 4dx2-y2    -0.00023  -0.00008  -0.00032  -0.00020   0.00028
14 O 4f-3        0.00002   0.00003   0.00005   0.00005  -0.00006
14 O 4f-2       -0.00004   0.00000   0.00010  -0.00001  -0.00007
14 O 4f-1        0.00001   0.00002   0.00006   0.00003  -0.00004
14 O 4f+0        0.00001   0.00001  -0.00001   0.00004   0.00000
14 O 4f+1       -0.00003  -0.00001   0.00002  -0.00001  -0.00001
14 O 4f+2       -0.00002   0.00003  -0.00005   0.00004  -0.00003
14 O 4f+3        0.00002   0.00000  -0.00005  -0.00000   0.00005
15 C 1s         -0.00026   0.00016   0.00043   0.00001  -0.00063
15 C 2s         -0.00604   0.00113   0.00502  -0.00000  -0.00839
15 C 3s         -0.00884  -0.00156   0.00772  -0.00152  -0.00423
15 C 2px        -0.01472  -0.00067  -0.00048  -0.00235  -0.00785
15 C 2py         0.00084  -0.00428  -0.00714  -0.00402   0.01201
15 C 2pz         0.01039   0.00039   0.00847   0.00131   0.00055
15 C 3px        -0.01141   0.00044  -0.00288   0.00075  -0.00363
15 C 3py        -0.00222  -0.00404  -0.00332  -0.00678   0.00502
15 C 3pz         0.00810   0.00013   0.00553   0.00168   0.00020
15 C 3dxy        0.00159   0.00063   0.00052   0.00090   0.00004
15 C 3dyz       -0.00142   0.00121  -0.00193   0.00152  -0.00148
15 C 3dz^2      -0.00006  -0.00043  -0.00002  -0.00066   0.00062
15 C 3dxz        0.00128  -0.00079   0.00075  -0.00109   0.00162
15 C 3dx2-y2    -0.00072  -0.00211   0.00006  -0.00305   0.00261
16 H 1s          0.00137  -0.00459   0.00231  -0.00639   0.00725
16 H 2s          0.00133  -0.00523   0.00319  -0.00732   0.00902
16 H 2px        -0.00048   0.00003   0.00010  -0.00001  -0.00032
16 H 2py        -0.00002  -0.00015  -0.00014  -0.00003   0.00037
16 H 2pz         0.00014   0.00005   0.00021   0.00004  -0.00006
17 Fe 1s         0.00005  -0.00017   0.00064  -0.00000  -0.00000
17 Fe 2s         0.00020  -0.00048   0.00188  -0.00000  -0.00000
17 Fe 3s        -0.03039  -0.00158   0.00876  -0.00001  -0.00000
17 Fe 4s        -0.02064  -0.04393   0.02886  -0.00003  -0.00000
17 Fe 5s        -0.00999  -0.00504  -0.00496   0.00001   0.00000
17 Fe 6s         0.00436   0.00013   0.00427  -0.00000  -0.00000
17 Fe 7s        -0.03706  -0.00341  -0.02520   0.00003   0.00001
17 Fe 2px       -0.00096  -0.00022  -0.00004   0.00002   0.00000
17 Fe 2py        0.00022  -0.00059   0.00030  -0.00002  -0.00000
17 Fe 2pz        0.00017  -0.00005   0.00005   0.00012   0.00002
17 Fe 3px       -0.02684  -0.00600  -0.00099   0.00033   0.00003
17 Fe 3py       -0.00132  -0.01637   0.00323  -0.00034  -0.00003
17 Fe 3pz        0.00362  -0.00147   0.00060   0.00234   0.00020
17 Fe 4px       -0.09662  -0.03013  -0.00071   0.00027   0.00051
17 Fe 4py        0.06823  -0.01528   0.07127  -0.00034  -0.00052
17 Fe 4pz        0.02338   0.00211   0.01021   0.00186   0.00362
17 Fe 5px        0.06148   0.03573   0.00046  -0.00059  -0.00016
17 Fe 5py       -0.06245   0.05971  -0.05897   0.00065   0.00017
17 Fe 5pz       -0.01757   0.00340  -0.00843  -0.00411  -0.00114
17 Fe 6px       -0.00013   0.00024  -0.00058   0.00003   0.00004
17 Fe 6py        0.00248   0.00303   0.00190  -0.00003  -0.00004
17 Fe 6pz        0.00037   0.00040   0.00035   0.00022   0.00031
17 Fe 7px       -0.03371  -0.00210   0.00023  -0.00086  -0.00099
17 Fe 7py       -0.00830  -0.00769  -0.01095   0.00087   0.00099
17 Fe 7pz        0.00360  -0.00079  -0.00159  -0.00606  -0.00695
17 Fe 3dxy      -0.68849  -0.28123   0.36167  -0.11712   0.05024
17 Fe 3dyz       0.07212  -0.11340  -0.16213  -0.58659  -0.21386
17 Fe 3dz^2      0.42620   0.31689   0.48133  -0.20271   0.08704
17 Fe 3dxz       0.08681  -0.03430   0.19203   0.20312  -0.55434
17 Fe 3dx2-y2   -0.56031   0.52071  -0.10748  -0.05427  -0.10893
17 Fe 4dxy      -0.01024   0.00943  -0.01187   0.00624  -0.00368
17 Fe 4dyz       0.00067   0.00501   0.00619   0.02544   0.00245
17 Fe 4dz^2      0.00779  -0.01439  -0.01839   0.01081  -0.00637
17 Fe 4dxz       0.00163   0.00043  -0.00678  -0.01671   0.02737
17 Fe 4dx2-y2   -0.00813  -0.01918   0.00214   0.00123   0.00423
17 Fe 5dxy      -0.00657   0.00116  -0.00187   0.00115  -0.00067
17 Fe 5dyz       0.00052   0.00094   0.00110   0.00466   0.00002
17 Fe 5dz^2      0.00468  -0.00265  -0.00322   0.00199  -0.00116
17 Fe 5dxz       0.00097  -0.00008  -0.00111  -0.00308   0.00457
17 Fe 5dx2-y2   -0.00526  -0.00303   0.00003   0.00022   0.00065
17 Fe 6dxy      -0.05449  -0.01175   0.01219  -0.00090  -0.00021
17 Fe 6dyz       0.00719  -0.00401  -0.00308  -0.01306  -0.01084
17 Fe 6dz^2      0.02578   0.01315   0.01050  -0.00155  -0.00036
17 Fe 6dxz       0.00428  -0.00075   0.00591  -0.00706  -0.00946
17 Fe 6dx2-y2   -0.04043   0.01679  -0.01008  -0.00284  -0.00288
17 Fe 4f-3       0.00024  -0.00005   0.00009   0.00001   0.00004
17 Fe 4f-2       0.00002  -0.00000  -0.00006  -0.00009   0.00017
17 Fe 4f-1      -0.00010  -0.00021  -0.00017   0.00007  -0.00003
17 Fe 4f+0       0.00001  -0.00005  -0.00006  -0.00005  -0.00002
17 Fe 4f+1      -0.00012  -0.00008  -0.00003  -0.00001   0.00005
17 Fe 4f+2       0.00006  -0.00005  -0.00004  -0.00014  -0.00004
17 Fe 4f+3      -0.00035  -0.00012   0.00005  -0.00004   0.00002
17 Fe 5f-3       0.00068  -0.00244   0.00047   0.00027   0.00024
17 Fe 5f-2       0.00037   0.00037  -0.00022   0.00057   0.00027
17 Fe 5f-1      -0.00024  -0.00192  -0.00059   0.00047   0.00021
17 Fe 5f+0       0.00003  -0.00045  -0.00024  -0.00099  -0.00007
17 Fe 5f+1      -0.00028  -0.00067   0.00001  -0.00001   0.00029
17 Fe 5f+2       0.00048  -0.00080  -0.00003  -0.00097  -0.00108
17 Fe 5f+3      -0.00267  -0.00136  -0.00010  -0.00008  -0.00015
17 Fe 5g-4       0.00136  -0.00011   0.00009   0.00014   0.00013
17 Fe 5g-3      -0.00028   0.00010   0.00000   0.00039   0.00122
17 Fe 5g-2      -0.00079  -0.00067   0.00011  -0.00020  -0.00019
17 Fe 5g-1       0.00013  -0.00016  -0.00014  -0.00045  -0.00070
17 Fe 5g+0       0.00072   0.00049   0.00051  -0.00025   0.00041
17 Fe 5g+1       0.00031  -0.00009   0.00049  -0.00000  -0.00154
17 Fe 5g+2      -0.00072   0.00038  -0.00053   0.00006  -0.00053
17 Fe 5g+3      -0.00014   0.00029  -0.00028  -0.00030   0.00048
17 Fe 5g+4      -0.00004  -0.00178   0.00089   0.00003   0.00035
18 O 1s         -0.00007  -0.00036  -0.00021   0.00011   0.00006
18 O 2s         -0.00875  -0.00730   0.00100   0.02240  -0.01640
18 O 3s         -0.00264  -0.00191   0.00035   0.00654  -0.00477
18 O 4s         -0.02112  -0.01042   0.00131   0.03624  -0.02576
18 O 2px         0.00672   0.00289   0.00856  -0.00845   0.00277
18 O 2py         0.00740  -0.00777  -0.00420  -0.00182  -0.01328
18 O 2pz         0.00604  -0.01367   0.00489   0.01422  -0.01467
18 O 3px         0.00779   0.00391   0.01054  -0.01057   0.00399
18 O 3py         0.00850  -0.01002  -0.00521  -0.00123  -0.01737
18 O 3pz         0.00673  -0.01821   0.00650   0.01910  -0.01995
18 O 4px         0.00811   0.00378   0.01009  -0.00992   0.00443
18 O 4py         0.00981  -0.01151  -0.00736  -0.00024  -0.01811
18 O 4pz         0.01248  -0.01685   0.00797   0.02008  -0.02049
18 O 3dxy        0.00036  -0.00039  -0.00027  -0.00031  -0.00028
18 O 3dyz       -0.00053   0.00029   0.00036   0.00025   0.00033
18 O 3dz^2      -0.00040   0.00032  -0.00062  -0.00028   0.00041
18 O 3dxz       -0.00082  -0.00035  -0.00008   0.00100  -0.00049
18 O 3dx2-y2     0.00065   0.00017   0.00045  -0.00051   0.00008
18 O 4dxy        0.00027  -0.00128  -0.00092  -0.00049  -0.00168
18 O 4dyz       -0.00205   0.00096   0.00143   0.00091   0.00081
18 O 4dz^2      -0.00118   0.00122  -0.00272  -0.00107   0.00162
18 O 4dxz       -0.00203  -0.00098  -0.00000   0.00272  -0.00205
18 O 4dx2-y2     0.00154   0.00074   0.00157  -0.00139   0.00042
18 O 4f-3        0.00032   0.00004   0.00020  -0.00013  -0.00015
18 O 4f-2       -0.00020  -0.00023  -0.00008   0.00031  -0.00024
18 O 4f-1       -0.00043   0.00033  -0.00013  -0.00025   0.00046
18 O 4f+0        0.00003   0.00015  -0.00037  -0.00028   0.00011
18 O 4f+1       -0.00053  -0.00002  -0.00017   0.00023  -0.00001
18 O 4f+2        0.00036  -0.00015  -0.00003  -0.00002  -0.00026
18 O 4f+3       -0.00004   0.00017   0.00018  -0.00002   0.00033
19 Fe 1s         0.00009   0.00021  -0.00085   0.00000   0.00000
19 Fe 2s         0.00027   0.00060  -0.00251   0.00000   0.00000
19 Fe 3s         0.00164   0.00165  -0.01282   0.00001   0.00000
19 Fe 4s         0.01788   0.01720  -0.04428   0.00005   0.00001
19 Fe 5s         0.00223   0.00324   0.00006   0.00000  -0.00000
19 Fe 6s         0.00107   0.00153  -0.00149   0.00000   0.00000
19 Fe 7s         0.03507  -0.00321   0.01176  -0.00001  -0.00000
19 Fe 2px        0.00002   0.00013   0.00140  -0.00002   0.00001
19 Fe 2py        0.00008   0.00002   0.00027   0.00002  -0.00001
19 Fe 2pz        0.00001  -0.00002  -0.00016  -0.00014   0.00007
19 Fe 3px       -0.00015   0.00522   0.03462  -0.00020   0.00051
19 Fe 3py       -0.00001  -0.00082   0.00670   0.00015  -0.00052
19 Fe 3pz        0.00002  -0.00086  -0.00396  -0.00113   0.00366
19 Fe 4px       -0.03668   0.00374   0.12270  -0.00119   0.00026
19 Fe 4py        0.02622  -0.01862   0.03745   0.00101  -0.00028
19 Fe 4pz        0.00892  -0.00317  -0.01210  -0.00743   0.00195
19 Fe 5px        0.02943  -0.01338  -0.15412   0.00096  -0.00176
19 Fe 5py       -0.01269   0.00761  -0.04043  -0.00074   0.00179
19 Fe 5pz       -0.00597   0.00298   0.01613   0.00554  -0.01256
19 Fe 6px       -0.00167  -0.00162  -0.00603  -0.00015  -0.00021
19 Fe 6py       -0.00055   0.00153  -0.00103   0.00016   0.00021
19 Fe 6pz        0.00016   0.00045   0.00071  -0.00109  -0.00146
19 Fe 7px       -0.01141   0.00299   0.00218   0.00063   0.00077
19 Fe 7py       -0.01558  -0.00522  -0.00106  -0.00063  -0.00077
19 Fe 7pz       -0.00059  -0.00116  -0.00045   0.00443   0.00543
19 Fe 3dxy      -0.00317   0.57878  -0.32509   0.11912  -0.07096
19 Fe 3dyz      -0.00343  -0.04632  -0.02122   0.15294  -0.69777
19 Fe 3dz^2     -0.00814   0.04746   0.48034   0.20520  -0.12305
19 Fe 3dxz      -0.00853   0.14901   0.12764  -0.65097  -0.21714
19 Fe 3dx2-y2    0.04214  -0.36205  -0.37760  -0.07019  -0.12967
19 Fe 4dxy      -0.00277  -0.06033   0.03897  -0.01527   0.01112
19 Fe 4dyz      -0.00021   0.00497   0.00201  -0.02758   0.09370
19 Fe 4dz^2      0.00250  -0.00663  -0.05724  -0.02631   0.01927
19 Fe 4dxz       0.00024  -0.01626  -0.01566   0.07549   0.01841
19 Fe 4dx2-y2   -0.00011   0.03979   0.04836   0.00674   0.01589
19 Fe 5dxy      -0.00085  -0.01215   0.00751  -0.00296   0.00224
19 Fe 5dyz      -0.00007   0.00098   0.00043  -0.00548   0.01861
19 Fe 5dz^2      0.00091  -0.00114  -0.01084  -0.00510   0.00388
19 Fe 5dxz       0.00014  -0.00319  -0.00287   0.01449   0.00344
19 Fe 5dx2-y2   -0.00026   0.00780   0.00865   0.00127   0.00312
19 Fe 6dxy      -0.00201   0.00788  -0.00490   0.00045   0.00227
19 Fe 6dyz      -0.00064  -0.00088  -0.00117  -0.00225   0.00890
19 Fe 6dz^2      0.00214   0.00145   0.01056   0.00076   0.00392
19 Fe 6dxz      -0.00014   0.00219   0.00278  -0.00525  -0.00643
19 Fe 6dx2-y2    0.00277  -0.00464  -0.00568  -0.00106   0.00035
19 Fe 4f-3      -0.00004   0.00020  -0.00030   0.00006  -0.00008
19 Fe 4f-2      -0.00000  -0.00002   0.00002   0.00000  -0.00045
19 Fe 4f-1      -0.00001  -0.00011   0.00012   0.00002   0.00005
19 Fe 4f+0      -0.00003  -0.00006  -0.00011   0.00017   0.00015
19 Fe 4f+1       0.00006   0.00006   0.00041   0.00014  -0.00006
19 Fe 4f+2       0.00001   0.00009   0.00011  -0.00034   0.00002
19 Fe 4f+3      -0.00005  -0.00035  -0.00022  -0.00006  -0.00008
19 Fe 5f-3      -0.00022   0.00203  -0.00388   0.00026  -0.00015
19 Fe 5f-2       0.00016  -0.00014   0.00064  -0.00184  -0.00190
19 Fe 5f-1      -0.00068  -0.00071   0.00163   0.00032   0.00020
19 Fe 5f+0      -0.00022  -0.00059  -0.00101   0.00226   0.00132
19 Fe 5f+1      -0.00006   0.00085   0.00445   0.00113   0.00026
19 Fe 5f+2       0.00007   0.00102   0.00136  -0.00311  -0.00098
19 Fe 5f+3      -0.00155  -0.00343  -0.00360  -0.00087  -0.00051
19 Fe 5g-4       0.00010  -0.00011  -0.00002   0.00002  -0.00013
19 Fe 5g-3      -0.00002   0.00002  -0.00001  -0.00008  -0.00025
19 Fe 5g-2       0.00001  -0.00010   0.00018   0.00006   0.00000
19 Fe 5g-1       0.00002  -0.00001  -0.00015  -0.00003   0.00017
19 Fe 5g+0      -0.00001   0.00005   0.00011  -0.00001   0.00006
19 Fe 5g+1       0.00002  -0.00002   0.00011   0.00001   0.00005
19 Fe 5g+2      -0.00006   0.00005   0.00005   0.00002  -0.00012
19 Fe 5g+3      -0.00001  -0.00000   0.00002  -0.00018   0.00039
19 Fe 5g+4       0.00008  -0.00016   0.00026  -0.00005   0.00003
20 O 1s         -0.00008  -0.00014  -0.00005   0.00014  -0.00029
20 O 2s          0.00083   0.00811  -0.01060  -0.02297   0.02017
20 O 3s          0.00022   0.00239  -0.00285  -0.00656   0.00570
20 O 4s          0.00096   0.01450  -0.01659  -0.03596   0.03274
20 O 2px        -0.00333   0.00954   0.01095  -0.00080  -0.01882
20 O 2py         0.00070  -0.00013  -0.00690  -0.01163   0.00861
20 O 2pz         0.00478   0.00157  -0.01609  -0.02003   0.02785
20 O 3px        -0.00432   0.01175   0.01465   0.00017  -0.02441
20 O 3py         0.00128  -0.00008  -0.00917  -0.01435   0.01144
20 O 3pz         0.00625   0.00253  -0.02114  -0.02638   0.03682
20 O 4px        -0.00379   0.01086   0.01404   0.00115  -0.02749
20 O 4py         0.00257  -0.00311  -0.00503  -0.01305   0.00457
20 O 4pz         0.00928   0.00050  -0.01977  -0.02649   0.03180
20 O 3dxy        0.00016  -0.00043  -0.00022   0.00035   0.00008
20 O 3dyz        0.00000  -0.00030   0.00035   0.00087  -0.00062
20 O 3dz^2      -0.00024  -0.00004  -0.00002   0.00013  -0.00031
20 O 3dxz        0.00006  -0.00042  -0.00022   0.00030   0.00009
20 O 3dx2-y2    -0.00007   0.00005  -0.00040  -0.00049   0.00024
20 O 4dxy       -0.00012  -0.00076  -0.00106   0.00054   0.00135
20 O 4dyz       -0.00033  -0.00058   0.00095   0.00183  -0.00185
20 O 4dz^2      -0.00006  -0.00014  -0.00001   0.00031  -0.00106
20 O 4dxz       -0.00006  -0.00113  -0.00036   0.00112  -0.00030
20 O 4dx2-y2     0.00016  -0.00035  -0.00137  -0.00103   0.00089
20 O 4f-3       -0.00001   0.00016   0.00026   0.00003  -0.00033
20 O 4f-2       -0.00001   0.00009  -0.00020  -0.00034   0.00033
20 O 4f-1        0.00018  -0.00012   0.00014   0.00015   0.00001
20 O 4f+0        0.00001  -0.00017   0.00005   0.00030  -0.00019
20 O 4f+1        0.00011  -0.00013  -0.00018  -0.00018   0.00045
20 O 4f+2       -0.00013   0.00017   0.00012   0.00006  -0.00028
20 O 4f+3        0.00005  -0.00008   0.00010   0.00018   0.00005
21 O 1s         -0.00008  -0.00014  -0.00005  -0.00014   0.00029
21 O 2s          0.00084   0.00811  -0.01056   0.02299  -0.02017
21 O 3s          0.00022   0.00239  -0.00284   0.00657  -0.00570
21 O 4s          0.00096   0.01450  -0.01652   0.03599  -0.03274
21 O 2px        -0.00447   0.00874   0.01464  -0.00428   0.02535
21 O 2py         0.00185   0.00067  -0.01056   0.01670  -0.01514
21 O 2pz        -0.00331  -0.00408   0.00995  -0.01555   0.01821
21 O 3px        -0.00581   0.01061   0.01949  -0.00684   0.03306
21 O 3py         0.00277   0.00107  -0.01397   0.02101  -0.02009
21 O 3pz        -0.00424  -0.00556   0.01298  -0.02041   0.02419
21 O 4px        -0.00607   0.01019   0.01869  -0.00786   0.03491
21 O 4py         0.00486  -0.00244  -0.00965   0.01974  -0.01200
21 O 4pz        -0.00682  -0.00427   0.01301  -0.02061   0.02060
[...]
State 0/7                State 1/7                State 2/7                
00000uuu0u :  9.73e-01   00000uuuu0 : -9.90e-01   00000u0uuu : -9.90e-01   
000000uuuu :  1.82e-01   00u00uu0u0 :  7.22e-02   0u000u0u0u : -7.00e-02   
0000u0uu0u : -6.77e-02   000u0u0uu0 :  6.66e-02   0000u00uuu :  6.83e-02   
000u0u0u0u : -6.70e-02   0000u0uuu0 :  6.63e-02   00u00u00uu : -6.59e-02   
00u00uu00u : -6.14e-02   0u000uuu00 :  6.47e-02   u0000u0uu0 : -6.09e-02   
u0000uuu00 :  5.64e-02   0u00u0uu00 :  2.04e-02   u0u00u00u0 :  2.13e-02   
00000uu0uu : -4.67e-02   0u0u0u0u00 :  2.02e-02   0u00u00u0u : -2.00e-02   
u0u00uu000 :  2.13e-02   000uu00uu0 :  1.89e-02   00u0u000uu : -1.80e-02   
000uu00u0u : -1.82e-02   00u0u0u0u0 :  1.77e-02   u000u00uu0 : -1.72e-02   
00uu0u000u : -1.80e-02   00uu0u00u0 :  1.76e-02   0uu00u000u :  1.70e-02   
State 3/7                State 4/7                State 5/7                
000000uuuu :  9.13e-01   00000uu0uu : -9.31e-01   00u00uuu00 : -9.03e-01   
00000uu0uu : -3.34e-01   000000uuuu : -3.37e-01   0000uuuu00 :  3.35e-01   
00000uuu0u : -1.87e-01   000u0u00uu :  6.36e-02   00u000uuu0 : -1.78e-01   
0u0000uu0u :  6.58e-02   0000u0u0uu :  6.31e-02   00uu0u0u00 :  7.66e-02   
000u000uuu :  6.21e-02   u0000uu0u0 : -6.28e-02   00u0u0uu00 :  7.61e-02   
00u000u0uu :  6.11e-02   0u000uu00u : -6.11e-02   000u0u0uu0 :  7.21e-02   
u00000uuu0 :  5.60e-02   000u000uuu : -2.48e-02   000u00uu0u :  7.14e-02   
0u000uu00u : -2.38e-02   00u000u0uu : -2.32e-02   0u000uuu00 : -6.62e-02   
0000u0u0uu :  2.30e-02   0u0000uu0u : -2.23e-02   0000uuu0u0 : -5.73e-02   
u0000uu0u0 : -2.24e-02   u00000uuu0 : -2.08e-02   00u00uu0u0 :  4.73e-02   
State 6/7                
000u0uuu00 :  9.34e-01   
000u00uuu0 :  2.63e-01   
00u000uu0u : -1.49e-01   
000u0u0u0u :  8.40e-02   
000uu0uu00 : -7.93e-02   
00uu0uu000 :  7.93e-02   
0000uuu00u : -7.83e-02   
000u0uu0u0 :  5.51e-02   
0000u0uu0u : -3.72e-02   
0u000u0uu0 :  2.67e-02   
Rootspace 17 with averaged weight 2.109e-07
 Frag    Nelec  2S+1   Ir     <n>  Max(weight)   Entropy
    0    2a+3b     6    A   0.121       0.9749  0.113942
    1    4a+2b     7    A   2.697       0.8911  0.115779
Wave function(s) in rootspace 17 in local primitive basis:
 Fac:  4.067e-04  1.498e-04  5.900e-04  1.779e-05  7.199e-04
  03:  9.319e-01  9.371e-01 -9.404e-01 -9.484e-01  9.444e-01
  00:  3.078e-01  2.949e-01 -2.862e-01 -2.639e-01  2.751e-01
  50:  1.232e-01  1.220e-01 -1.212e-01 -1.191e-01  1.201e-01
  02:  1.040e-01  9.671e-02 -9.232e-02 -7.894e-02  8.635e-02
  53: -7.969e-02 -7.881e-02  7.814e-02  7.666e-02 -7.732e-02
  52: -4.726e-02 -4.768e-02  4.792e-02  4.866e-02 -4.824e-02
  10: -2.566e-02 -2.596e-02  2.614e-02  2.662e-02 -2.638e-02
  43: -2.067e-02 -2.039e-02  2.022e-02  1.977e-02 -1.998e-02
  40:  1.820e-02  1.775e-02 -1.747e-02 -1.671e-02  1.710e-02
  42:  1.591e-02  1.574e-02 -1.563e-02 -1.529e-02  1.548e-02
  21: -1.178e-02 -1.178e-02  1.179e-02  1.176e-02 -1.179e-02
  06:  1.107e-02  1.101e-02 -1.097e-02 -1.086e-02  1.092e-02
  13:  1.013e-02  1.058e-02 -1.085e-02 -1.163e-02  1.122e-02
  34:  9.643e-03  9.607e-03 -9.588e-03 -9.498e-03  9.555e-03
  31:  8.210e-03  8.209e-03 -8.204e-03 -8.195e-03  8.195e-03
  12:  2.246e-03  2.266e-03 -2.277e-03 -2.299e-03  2.295e-03
  61:  2.271e-03  2.271e-03 -2.269e-03 -2.259e-03  2.265e-03
  24:  1.306e-03  1.259e-03 -1.233e-03 -1.147e-03  1.196e-03
  56: -3.374e-04 -3.411e-04  3.423e-04  3.500e-04 -3.447e-04
  64:  1.236e-04  1.295e-04 -1.330e-04 -1.392e-04  1.370e-04
  04: -1.085e-04 -1.070e-04  1.084e-04  9.817e-05 -1.084e-04
Remaining 28 ENVs in rootspace 17 have combined average weight = 6.445481e-09
Leading 10 CSFs of 7 local primitive basis functions for fragment 0 in rootspace 17:
State 0/7                State 1/7                State 2/7                
00000uuuuu :  9.82e-01   0000u0uuuu : -9.09e-01   0000uuuu0u : -8.48e-01   
0000uuuuu0 : -1.14e-01   0000uuu0uu : -3.73e-01   0000uu0uuu : -4.88e-01   
000u00uuuu : -7.49e-02   00u0u00uuu :  9.11e-02   000uu0uu0u : -8.82e-02   
00u00u0uuu : -7.11e-02   0u00u0u0uu :  8.78e-02   00u0uu0u0u : -8.78e-02   
0u000uu0uu : -6.75e-02   u000u0uu0u :  7.35e-02   0u00uuu00u : -8.72e-02   
u0000uuu0u : -5.76e-02   000u00uuuu : -4.79e-02   0u000uuu0u : -6.37e-02   
uu000uu00u : -2.25e-02   00u0uu00uu : -4.05e-02   0u000u0uuu : -6.35e-02   
0uu00u00uu : -2.17e-02   000uu0u0uu : -3.86e-02   00u000uuuu :  5.20e-02   
000uu0uuu0 :  2.10e-02   00u00uuu0u :  3.76e-02   000uu00uuu : -5.06e-02   
0u0u00u0uu : -1.97e-02   00u00u0uuu :  3.63e-02   0u00uu00uu :  4.63e-02   
State 3/7                State 4/7                State 5/7                
0000uu0uuu : -8.49e-01   0000uuu0uu :  9.02e-01   0000uuuuu0 : -9.07e-01   
0000uuuu0u :  4.89e-01   0000u0uuuu : -3.79e-01   000u00uuuu :  2.98e-01   
0u00uu00uu :  8.62e-02   000uu0u0uu :  9.11e-02   00u00u0uuu :  1.83e-01   
000uu00uuu : -8.62e-02   00u0uu00uu :  9.01e-02   0u000uu0uu :  1.12e-01   
000u0u0uuu : -7.61e-02   u000uuu00u : -7.96e-02   0000uuu0uu : -8.62e-02   
u000uu0u0u :  7.02e-02   0000uuuuu0 : -6.93e-02   0u00uuu0u0 : -7.14e-02   
0u000u0uuu : -6.37e-02   000u00uuuu :  6.06e-02   u000uuuu00 : -6.74e-02   
0u00uuu00u :  5.38e-02   0u000uu0uu :  4.37e-02   00u0uu0uu0 : -6.66e-02   
000uu0uu0u :  4.98e-02   0u00u0u0uu :  3.73e-02   00000uuuuu : -5.71e-02   
00u0uu0u0u :  4.31e-02   00u0u00uuu :  3.45e-02   000uu0uuu0 : -5.51e-02   
State 6/7                
000u0uuu0u :  8.02e-01   
0u000uuu0u : -4.93e-01   
00u00uu0uu : -1.55e-01   
00u000uuuu : -1.23e-01   
00u00uuuu0 :  1.20e-01   
000u0u0uuu :  1.16e-01   
000uuuuu00 :  1.14e-01   
00uu0u0u0u :  7.83e-02   
0u0u0uu00u :  7.73e-02   
0u00uuuu00 : -7.11e-02   
Leading 10 CSFs of 7 local primitive basis functions for fragment 1 in rootspace 17:
State 0/7                State 1/7                State 2/7                
0000uuuuuu :  9.57e-01   000u0uuuuu :  9.91e-01   00u00uuuuu : -9.59e-01   
00u00uuuuu :  2.49e-01   0u0u0uuu0u : -6.41e-02   0000uuuuuu :  2.50e-01   
000uuu0uuu : -6.19e-02   000uu0uuuu :  6.41e-02   00u0u0uuuu : -6.08e-02   
0u00uuuu0u : -6.18e-02   00uu0uu0uu : -6.18e-02   00uu0u0uuu : -6.01e-02   
00u0uuu0uu : -5.97e-02   u00u0uuuu0 : -5.63e-02   u0u00uuuu0 :  5.96e-02   
0u000uuuuu : -5.94e-02   u0uu0uu0u0 : -2.39e-02   0uu00uuu0u :  5.84e-02   
u000uuuuu0 : -5.41e-02   0u0uu0uu0u :  2.28e-02   0uuu0u0u0u : -2.19e-02   
u0u0uuu0u0 : -2.30e-02   00uuu0u0uu :  2.07e-02   0uu0u0uu0u : -2.18e-02   
0u0uuu0u0u : -2.18e-02   u00uu0uuu0 :  1.95e-02   00uuu00uuu :  2.12e-02   
00uuuu00uu : -1.96e-02   0uuu0uu00u : -1.94e-02   u0uu0u0uu0 : -1.91e-02   
State 3/7                State 4/7                State 5/7                
0u000uuuuu :  9.89e-01   u0000uuuuu :  9.90e-01   00u0uuuuu0 :  9.33e-01   
0u00u0uuuu :  6.59e-02   u0u00uu0uu :  6.86e-02   00uu0uuu0u :  2.97e-01   
0u0u0u0uuu :  6.54e-02   u00u0u0uuu :  6.37e-02   0u00uuuuu0 :  1.30e-01   
0uu00uu0uu :  6.05e-02   u000u0uuuu :  6.36e-02   0uu00uuuu0 :  6.29e-02   
0000uuuuuu :  5.77e-02   uu000uuu0u :  6.08e-02   00uuuu0uu0 : -6.13e-02   
uu000uuuu0 : -5.48e-02   uu00u0uu0u : -2.27e-02   0uu0uuuu00 :  6.05e-02   
uuu00uu0u0 :  2.39e-02   uu0u0u0u0u : -2.25e-02   00u0uu0uuu : -5.92e-02   
0u0uu00uuu : -2.13e-02   u00uu00uuu : -2.14e-02   00uu00uuuu :  5.83e-02   
0uu0u0u0uu : -2.07e-02   u0u0u0u0uu : -2.04e-02   000uuuuu0u : -3.92e-02   
0uuu0u00uu : -2.06e-02   u0uu0u00uu : -2.03e-02   u00u0uuuu0 :  3.21e-02   
State 6/7                
00uu0uuuu0 :  9.43e-01   
00u0uuuu0u :  2.66e-01   
00u0u0uuuu :  9.92e-02   
0u0u0uuuu0 : -9.56e-02   
0uu00uuu0u :  7.42e-02   
00uuu0uuu0 :  6.26e-02   
0uuu0uuu00 :  6.10e-02   
000uuuuuu0 :  6.08e-02   
000uuu0uuu :  3.20e-02   
u000uuuuu0 : -2.71e-02   
Rootspace 23 with averaged weight 1.978e-07
 Frag    Nelec  2S+1   Ir     <n>  Max(weight)   Entropy
    0    3a+2b     6    A   0.121       0.9748  0.114435
    1    3a+3b     7    A   2.691       0.8888  0.115475
Wave function(s) in rootspace 23 in local primitive basis:
 Fac:  1.762e-04  4.872e-04  3.420e-04  3.685e-04  6.842e-04
  03:  9.319e-01 -9.368e-01 -9.403e-01  9.427e-01  9.444e-01
  00:  3.077e-01 -2.955e-01 -2.864e-01  2.798e-01  2.753e-01
  50:  1.232e-01 -1.221e-01 -1.212e-01  1.206e-01  1.202e-01
  02: -1.039e-01  9.726e-02  9.242e-02 -8.882e-02 -8.642e-02
  53: -7.968e-02  7.882e-02  7.815e-02 -7.766e-02 -7.733e-02
  52:  4.729e-02 -4.767e-02 -4.794e-02  4.814e-02  4.826e-02
  10: -2.565e-02  2.593e-02  2.613e-02 -2.627e-02 -2.637e-02
  43: -2.066e-02  2.039e-02  2.020e-02 -2.006e-02 -1.997e-02
  40:  1.818e-02 -1.777e-02 -1.747e-02  1.724e-02  1.709e-02
  42: -1.592e-02  1.576e-02  1.564e-02 -1.555e-02 -1.549e-02
  21: -1.178e-02  1.179e-02  1.179e-02 -1.179e-02 -1.179e-02
  06:  1.106e-02 -1.101e-02 -1.097e-02  1.094e-02  1.092e-02
  13:  1.012e-02 -1.053e-02 -1.083e-02  1.105e-02  1.120e-02
  34:  9.644e-03 -9.613e-03 -9.589e-03  9.570e-03  9.556e-03
  31:  8.209e-03 -8.208e-03 -8.204e-03  8.199e-03  8.195e-03
  12: -2.250e-03  2.269e-03  2.282e-03 -2.292e-03 -2.300e-03
  61:  2.271e-03 -2.271e-03 -2.269e-03  2.267e-03  2.265e-03
  24:  1.306e-03 -1.264e-03 -1.234e-03  1.212e-03  1.197e-03
  56: -3.374e-04  3.403e-04  3.422e-04 -3.437e-04 -3.447e-04
  64:  1.243e-04 -1.299e-04 -1.336e-04  1.361e-04  1.377e-04
  04: -1.085e-04  1.091e-04  1.090e-04 -1.086e-04 -1.086e-04
Remaining 28 ENVs in rootspace 23 have combined average weight = 6.304348e-09
Leading 10 CSFs of 7 local primitive basis functions for fragment 0 in rootspace 23:
State 0/7                State 1/7                State 2/7                
00000uuuuu :  9.82e-01   0000u0uuuu : -9.09e-01   0000uuuu0u : -8.48e-01   
0000uuuuu0 : -1.14e-01   0000uuu0uu : -3.73e-01   0000uu0uuu : -4.88e-01   
000u00uuuu : -7.48e-02   00u0u00uuu :  9.11e-02   000uu0uu0u : -8.82e-02   
00u00u0uuu : -7.11e-02   0u00u0u0uu :  8.78e-02   00u0uu0u0u : -8.78e-02   
0u000uu0uu : -6.75e-02   u000u0uu0u :  7.35e-02   0u00uuu00u : -8.72e-02   
u0000uuu0u : -5.76e-02   000u00uuuu : -4.78e-02   0u000uuu0u : -6.36e-02   
uu000uu00u : -2.25e-02   00u0uu00uu : -4.04e-02   0u000u0uuu : -6.35e-02   
0uu00u00uu : -2.17e-02   000uu0u0uu : -3.86e-02   00u000uuuu :  5.20e-02   
000uu0uuu0 :  2.10e-02   00u00uuu0u :  3.76e-02   000uu00uuu : -5.06e-02   
0u0u00u0uu : -1.97e-02   00u00u0uuu :  3.63e-02   0u00uu00uu :  4.63e-02   
State 3/7                State 4/7                State 5/7                
0000uu0uuu : -8.49e-01   0000uuu0uu :  9.02e-01   0000uuuuu0 : -9.07e-01   
0000uuuu0u :  4.89e-01   0000u0uuuu : -3.79e-01   000u00uuuu :  2.98e-01   
0u00uu00uu :  8.62e-02   000uu0u0uu :  9.11e-02   00u00u0uuu :  1.83e-01   
000uu00uuu : -8.62e-02   00u0uu00uu :  9.01e-02   0u000uu0uu :  1.12e-01   
000u0u0uuu : -7.61e-02   u000uuu00u : -7.96e-02   0000uuu0uu : -8.60e-02   
u000uu0u0u :  7.02e-02   0000uuuuu0 : -6.91e-02   0u00uuu0u0 : -7.14e-02   
0u000u0uuu : -6.36e-02   000u00uuuu :  6.05e-02   u000uuuu00 : -6.74e-02   
0u00uuu00u :  5.38e-02   0u000uu0uu :  4.36e-02   00u0uu0uu0 : -6.66e-02   
000uu0uu0u :  4.98e-02   0u00u0u0uu :  3.73e-02   00000uuuuu : -5.71e-02   
00u0uu0u0u :  4.31e-02   00u0u00uuu :  3.45e-02   000uu0uuu0 : -5.51e-02   
State 6/7                
000u0uuu0u :  8.02e-01   
0u000uuu0u : -4.93e-01   
00u00uu0uu : -1.55e-01   
00u000uuuu : -1.23e-01   
00u00uuuu0 :  1.20e-01   
000u0u0uuu :  1.16e-01   
000uuuuu00 :  1.14e-01   
00uu0u0u0u :  7.83e-02   
0u0u0uu00u :  7.73e-02   
0u00uuuu00 : -7.11e-02   
Leading 10 CSFs of 7 local primitive basis functions for fragment 1 in rootspace 23:
State 0/7                State 1/7                State 2/7                
0000uuuuuu :  9.57e-01   000u0uuuuu :  9.91e-01   00u00uuuuu :  9.59e-01   
00u00uuuuu :  2.49e-01   0u0u0uuu0u : -6.41e-02   0000uuuuuu : -2.50e-01   
000uuu0uuu : -6.19e-02   000uu0uuuu :  6.41e-02   00u0u0uuuu :  6.08e-02   
0u00uuuu0u : -6.18e-02   00uu0uu0uu : -6.18e-02   00uu0u0uuu :  6.01e-02   
00u0uuu0uu : -5.97e-02   u00u0uuuu0 : -5.63e-02   u0u00uuuu0 : -5.96e-02   
0u000uuuuu : -5.95e-02   u0uu0uu0u0 : -2.39e-02   0uu00uuu0u : -5.84e-02   
u000uuuuu0 : -5.41e-02   0u0uu0uu0u :  2.28e-02   0uuu0u0u0u :  2.19e-02   
u0u0uuu0u0 : -2.30e-02   00uuu0u0uu :  2.07e-02   0uu0u0uu0u :  2.18e-02   
0u0uuu0u0u : -2.18e-02   u00uu0uuu0 :  1.95e-02   00uuu00uuu : -2.12e-02   
00uuuu00uu : -1.96e-02   0uuu0uu00u : -1.94e-02   u0uu0u0uu0 :  1.91e-02   
State 3/7                State 4/7                State 5/7                
0u000uuuuu :  9.89e-01   u0000uuuuu :  9.90e-01   00u0uuuuu0 :  9.33e-01   
0u00u0uuuu :  6.59e-02   u0u00uu0uu :  6.86e-02   00uu0uuu0u :  2.97e-01   
0u0u0u0uuu :  6.54e-02   u00u0u0uuu :  6.38e-02   0u00uuuuu0 :  1.30e-01   
0uu00uu0uu :  6.05e-02   u000u0uuuu :  6.36e-02   0uu00uuuu0 :  6.30e-02   
0000uuuuuu :  5.77e-02   uu000uuu0u :  6.08e-02   00uuuu0uu0 : -6.14e-02   
uu000uuuu0 : -5.48e-02   uu00u0uu0u : -2.27e-02   0uu0uuuu00 :  6.05e-02   
uuu00uu0u0 :  2.39e-02   uu0u0u0u0u : -2.25e-02   00u0uu0uuu : -5.91e-02   
0u0uu00uuu : -2.13e-02   u00uu00uuu : -2.14e-02   00uu00uuuu :  5.84e-02   
0uu0u0u0uu : -2.07e-02   u0u0u0u0uu : -2.04e-02   000uuuuu0u : -3.93e-02   
0uuu0u00uu : -2.06e-02   u0uu0u00uu : -2.03e-02   u00u0uuuu0 :  3.21e-02   
State 6/7                
00uu0uuuu0 :  9.43e-01   
00u0uuuu0u :  2.65e-01   
00u0u0uuuu :  9.92e-02   
0u0u0uuuu0 : -9.56e-02   
0uu00uuu0u :  7.42e-02   
00uuu0uuu0 :  6.26e-02   
0uuu0uuu00 :  6.10e-02   
000uuuuuu0 :  6.09e-02   
000uuu0uuu :  3.21e-02   
u000uuuuu0 : -2.71e-02   
Rootspace 9 with averaged weight 1.747e-07
 Frag    Nelec  2S+1   Ir     <n>  Max(weight)   Entropy
    0    1a+4b     4    A   4.881       0.9090  0.206133
    1    5a+1b     7    A   2.211       0.7155  0.206047
Wave function(s) in rootspace 9 in local primitive basis:
 Fac:  3.346e-04  5.981e-04  5.801e-04  2.428e-04  9.128e-05
  53: -8.232e-01  8.249e-01 -8.262e-01  8.274e-01  8.262e-01
  50:  4.654e-01 -4.635e-01  4.620e-01 -4.603e-01 -4.626e-01
  63:  1.610e-01 -1.587e-01  1.569e-01 -1.554e-01 -1.559e-01
  10: -1.486e-01  1.493e-01 -1.499e-01  1.506e-01  1.495e-01
  52: -1.156e-01  1.152e-01 -1.149e-01  1.148e-01  1.145e-01
  60: -1.149e-01  1.122e-01 -1.101e-01  1.082e-01  1.097e-01
  33: -9.586e-02  9.568e-02 -9.556e-02  9.541e-02  9.571e-02
  12: -9.135e-02  9.129e-02 -9.125e-02  9.119e-02  9.129e-02
  62:  8.273e-02 -8.341e-02  8.390e-02 -8.433e-02 -8.409e-02
  21:  5.319e-02 -5.313e-02  5.308e-02 -5.305e-02 -5.299e-02
  01: -4.316e-02  4.460e-02 -4.570e-02  4.669e-02  4.603e-02
  41:  3.145e-02 -3.084e-02  3.040e-02 -3.001e-02 -3.019e-02
  30: -2.492e-02  2.622e-02 -2.720e-02  2.815e-02  2.724e-02
  32: -1.661e-02  1.830e-02 -1.959e-02  2.076e-02  1.997e-02
  24:  8.192e-03 -8.113e-03  8.055e-03 -8.026e-03 -7.946e-03
  56: -5.998e-03  6.019e-03 -6.036e-03  6.057e-03  6.028e-03
  44: -3.097e-03  3.945e-03 -4.579e-03  5.108e-03  4.927e-03
  13: -5.678e-03  4.492e-03 -3.564e-03  2.619e-03  3.654e-03
  16: -2.313e-03  2.307e-03 -2.302e-03  2.300e-03  2.297e-03
  04:  2.666e-03 -2.281e-03  1.984e-03 -1.689e-03 -1.992e-03
  36: -1.760e-03  1.774e-03 -1.784e-03  1.793e-03  1.784e-03
  66:  1.362e-03 -1.359e-03  1.357e-03 -1.356e-03 -1.353e-03
  25:  8.901e-04 -8.960e-04  9.008e-04 -9.055e-04 -9.015e-04
  05: -8.701e-04  8.797e-04 -8.869e-04  8.937e-04  8.881e-04
  45:  8.517e-04 -8.535e-04  8.551e-04 -8.570e-04 -8.539e-04
  22:  1.456e-04 -1.453e-04  1.451e-04 -1.448e-04 -1.450e-04
  02: -1.159e-04  1.180e-04 -1.196e-04  1.210e-04  1.200e-04
  42:  1.067e-04 -1.070e-04  1.072e-04 -1.075e-04 -1.067e-04
  43:  9.185e-05 -9.190e-05  9.191e-05 -9.171e-05 -9.270e-05
  51: -7.332e-05  7.345e-05 -7.355e-05  7.370e-05  7.342e-05
  54:  6.283e-05 -6.293e-05  6.302e-05 -6.315e-05 -6.288e-05
Remaining 18 ENVs in rootspace 9 have combined average weight = 9.853994e-09
Leading 10 CSFs of 7 local primitive basis functions for fragment 0 in rootspace 9:
State 0/7                State 1/7                State 2/7                
00000uu20u : -6.65e-01   000000uuu2 : -6.99e-01   0000002uuu :  5.15e-01   
000002uu0u :  4.66e-01   00000u2u0u : -4.13e-01   00000uuu02 :  4.96e-01   
00000uuu02 : -4.23e-01   00000uu0u2 : -3.29e-01   00000u20uu :  4.47e-01   
00000u0uu2 : -2.52e-01   00000uuduu :  2.28e-01   00000uu20u : -2.95e-01   
00000u02uu : -1.19e-01   00000duuuu : -2.19e-01   00000u0uu2 :  2.25e-01   
00000uu02u :  1.15e-01   000000u2uu :  2.18e-01   000002uu0u :  2.06e-01   
0000020uuu :  1.08e-01   00000uu2u0 : -1.45e-01   000000uu2u : -1.80e-01   
00000uuu20 :  1.04e-01   00000uuudu : -9.32e-02   0000020uuu : -1.39e-01   
0000uuu200 : -7.72e-02   00000uduuu :  8.38e-02   00000uuu20 : -1.29e-01   
000000uu2u : -7.59e-02   000002uuu0 : -7.53e-02   00000uu02u : -6.39e-02   
State 3/7                State 4/7                State 5/7                
00000uuduu : -5.08e-01   00000u20uu : -5.43e-01   00000uduuu : -5.83e-01   
000000uuu2 : -4.98e-01   00000uuu02 :  3.75e-01   00000duuuu : -5.42e-01   
00000u2u0u :  4.93e-01   00000uu20u : -3.70e-01   00000uuudu : -4.42e-01   
000002uuu0 : -2.94e-01   00000u02uu :  3.45e-01   00000u2u0u :  2.65e-01   
00000u0u2u :  2.46e-01   00000uu02u :  3.23e-01   000000u2uu :  2.13e-01   
00000uduuu :  1.57e-01   00000u0uu2 :  2.63e-01   00000uuduu : -1.11e-01   
00000uuudu :  1.46e-01   00000u2uu0 : -2.01e-01   00000u0u2u :  9.12e-02   
000000u2uu : -9.01e-02   0000002uuu : -1.83e-01   0000duuuu0 : -6.29e-02   
00000uu2u0 :  7.37e-02   00000uuu20 : -1.46e-01   00u00d0uuu :  4.82e-02   
00000duuuu :  7.00e-02   000000uu2u :  7.66e-02   0000uuduu0 :  4.75e-02   
State 6/7                
00000uduuu : -4.65e-01   
00000duuuu :  4.18e-01   
000002u0uu :  4.08e-01   
000000u2uu :  3.95e-01   
00000uu0u2 :  2.60e-01   
00000uuudu :  2.30e-01   
00000uu2u0 :  2.06e-01   
000000uuu2 : -1.89e-01   
000002uuu0 : -1.54e-01   
00000uuduu :  1.11e-01   
Leading 10 CSFs of 7 local primitive basis functions for fragment 1 in rootspace 9:
State 0/7                State 1/7                State 2/7                
0000uuuuuu :  9.57e-01   000u0uuuuu :  9.91e-01   00u00uuuuu : -9.59e-01   
00u00uuuuu :  2.49e-01   0u0u0uuu0u : -6.41e-02   0000uuuuuu :  2.50e-01   
000uuu0uuu : -6.19e-02   000uu0uuuu :  6.41e-02   00u0u0uuuu : -6.07e-02   
0u00uuuu0u : -6.18e-02   00uu0uu0uu : -6.19e-02   00uu0u0uuu : -6.01e-02   
00u0uuu0uu : -5.98e-02   u00u0uuuu0 : -5.63e-02   u0u00uuuu0 :  5.96e-02   
0u000uuuuu : -5.84e-02   u0uu0uu0u0 : -2.39e-02   0uu00uuu0u :  5.84e-02   
u000uuuuu0 : -5.42e-02   0u0uu0uu0u :  2.28e-02   0uuu0u0u0u : -2.19e-02   
u0u0uuu0u0 : -2.30e-02   00uuu0u0uu :  2.07e-02   0uu0u0uu0u : -2.18e-02   
0u0uuu0u0u : -2.18e-02   u00uu0uuu0 :  1.95e-02   00uuu00uuu :  2.12e-02   
00uuuu00uu : -1.96e-02   0uuu0uu00u : -1.94e-02   u0uu0u0uu0 : -1.91e-02   
State 3/7                State 4/7                State 5/7                
0u000uuuuu :  9.89e-01   u0000uuuuu :  9.90e-01   00u0uuuuu0 :  9.32e-01   
0u00u0uuuu :  6.59e-02   u0u00uu0uu :  6.86e-02   00uu0uuu0u :  2.99e-01   
0u0u0u0uuu :  6.54e-02   u00u0u0uuu :  6.38e-02   0u00uuuuu0 :  1.30e-01   
0uu00uu0uu :  6.05e-02   u000u0uuuu :  6.36e-02   0uu00uuuu0 :  6.20e-02   
0000uuuuuu :  5.68e-02   uu000uuu0u :  6.08e-02   00uuuu0uu0 : -6.13e-02   
uu000uuuu0 : -5.48e-02   uu00u0uu0u : -2.27e-02   0uu0uuuu00 :  6.05e-02   
uuu00uu0u0 :  2.39e-02   uu0u0u0u0u : -2.25e-02   00u0uu0uuu : -5.96e-02   
0u0uu00uuu : -2.13e-02   u00uu00uuu : -2.14e-02   00uu00uuuu :  5.82e-02   
0uu0u0u0uu : -2.07e-02   u0u0u0u0uu : -2.04e-02   000uuuuu0u : -3.79e-02   
0uuu0u00uu : -2.06e-02   u0uu0u00uu : -2.03e-02   u00u0uuuu0 :  3.20e-02   
State 6/7                
00uu0uuuu0 :  9.43e-01   
00u0uuuu0u :  2.66e-01   
00u0u0uuuu :  9.91e-02   
0u0u0uuuu0 : -9.51e-02   
0uu00uuu0u :  7.40e-02   
00uuu0uuu0 :  6.26e-02   
000uuuuuu0 :  6.17e-02   
0uuu0uuu00 :  6.10e-02   
000uuu0uuu :  3.20e-02   
u000uuuuu0 : -2.71e-02   
All 33 rootspaces accounted for
