#INFO: **** input file is /project/lgagliardi/valayagarawal/lasscf/mof_nodes/Al_Fe_Fe/production/20_11/lassi_1_15.py ****
import numpy as np
import sys
from pyscf import gto, scf, tools,lib, mcscf
from pyscf.mcscf import avas,project_init_guess
from pyscf import mcscf
from mrh.my_pyscf.tools import molden
from mrh.my_pyscf.mcscf import lasscf_async as asyn
mol_name='Al_Fe_Fe.xyz' # Al-Fe-Fe MOF node
basis={'C': 'cc-pvdz','H': 'cc-pvdz','O': 'cc-pvtz','Al': 'cc-pvtz','Fe': 'cc-pvtz'}
n=15
output='r1_n'+str(n)+'_analyze.log'
mol=gto.M(atom=mol_name,verbose=4,spin=9,charge=0,basis=basis, output=output) #spin = 2S
mf=scf.RHF(mol)
mf.init_guess='atom'
mf=mf.density_fit()
mf.max_cycle=1
mf.kernel()
mf.mo_coeff=np.load('hf.npy')
#np.save('hf',mf.mo_coeff)
#ncas,nelecas,guess_mo_coeff=avas.kernel(mf,['Fe 3d', 'Fe 4d'],minao=mol.basis, openshell_option=3)
#mc_test = mcscf.CASCI (mf, ncas, nelecas)
#tools.molden.from_mo(mol,'avas.molden',guess_mo_coeff[:,mc_test.ncore:][:,:ncas])
#final_list=[5,6,8,9,10,11,12,13,14]#,15,16,17,18,19,20,21,22,23,24,25]+mc_test.ncore

mo_guess=np.load('las_20_11.npy')
las=asyn.LASSCF(mf,(10,10),((1,5),(5,0)),spin_sub=(5,6),verbose=4) # spin is 2S+1
las.set_fragments_(([17],[19]),mo_guess)
las.mo_coeff=mo_guess
from mrh.my_pyscf.lassi import states
las=states.spin_shuffle(las)
#for _ in range(i):
las=states.all_single_excitations(las)
ncsf=las.get_ugg().ncsf_sub
lroots=np.minimum(n,ncsf)
las.lasci()
las.lasci(lroots=lroots)
e_roots, si= las.lassi(opt=1)
from mrh.my_pyscf.lassi.sitools import analyze
ci1, si1, space_weights, navg, maxw, entr = analyze(las,si, state=[0,1,2,3,4],return_metrics=True)
np.save('space_weights',space_weights)
np.save('navg',navg)
np.save('maxw',maxw)
np.save('entr',entr)
#INFO: ******************** input file end ********************


System: uname_result(system='Linux', node='midway3-0552.rcc.local', release='4.18.0-305.3.1.el8.x86_64', version='#1 SMP Tue Jun 1 16:14:33 UTC 2021', machine='x86_64')  Threads 16
Python 3.9.12 (main, Apr  5 2022, 06:56:58) 
[GCC 7.5.0]
numpy 1.25.0  scipy 1.7.3
Date: Thu Feb 22 12:31:08 2024
PySCF version 2.5.0
PySCF path  /project/lgagliardi/shared/Apps/pyscf
GIT ORIG_HEAD 0bc590ffddec98eec5d2513a3d85274b7a791bc6
GIT HEAD (branch master) 6f8ce439fbe0c26ec4d226e2225b28c7f668f922

[ENV] PYSCF_MAX_MEMORY 128000
[CONFIG] conf_file /home/valayagarawal/.pyscf_conf.py
[INPUT] verbose = 4
[INPUT] num. atoms = 28
[INPUT] num. electrons = 211
[INPUT] charge = 0
[INPUT] spin (= nelec alpha-beta = 2S) = 9
[INPUT] symmetry False subgroup None
[INPUT] Mole.unit = angstrom
[INPUT] Symbol           X                Y                Z      unit          X                Y                Z       unit  Magmom
[INPUT]  1 O     -2.220198244100   0.399190300300   1.694471698900 AA   -4.195566623589   0.754360339150   3.202087436747 Bohr   0.0
[INPUT]  2 O     -1.685553244600  -1.782306321700   1.431399507200 AA   -3.185234000666  -3.368070818094   2.704953043445 Bohr   0.0
[INPUT]  3 C     -2.268517865100  -0.831955037900   1.983951274000 AA   -4.286877473722  -1.572167169583   3.749124552342 Bohr   0.0
[INPUT]  4 H     -2.913342016700  -1.076728588500   2.843786805300 AA   -5.505418518751  -2.034722142755   5.373978218669 Bohr   0.0
[INPUT]  5 O      1.388288080900   2.079556156200  -1.347085675300 AA    2.623484254899   3.929791595871  -2.545622992642 Bohr   0.0
[INPUT]  6 O     -0.759908859500   2.580923634700  -0.849227704000 AA   -1.436019624086   4.877238818000  -1.604807777953 Bohr   0.0
[INPUT]  7 C      0.346567468600   2.753895325000  -1.438835699000 AA    0.654917599338   5.204107939970  -2.719005409357 Bohr   0.0
[INPUT]  8 H      0.372379614500   3.617699659800  -2.123091150300 AA    0.703695485776   6.836461557954  -4.012060811555 Bohr   0.0
[INPUT]  9 O      1.046960908100  -2.642534200000   0.961324672200 AA    1.978469379435  -4.993665912797   1.816640347245 Bohr   0.0
[INPUT] 10 O     -0.399190300300   2.220198244100   1.694471698900 AA   -0.754360339150   4.195566623589   3.202087436747 Bohr   0.0
[INPUT] 11 O      1.782306321700   1.685553244600   1.431399507200 AA    3.368070818094   3.185234000666   2.704953043445 Bohr   0.0
[INPUT] 12 C      0.831955037900   2.268517865100   1.983951274000 AA    1.572167169583   4.286877473722   3.749124552342 Bohr   0.0
[INPUT] 13 H      1.076728588500   2.913342016700   2.843786805300 AA    2.034722142755   5.505418518751   5.373978218669 Bohr   0.0
[INPUT] 14 O     -2.079556156200  -1.388288080900  -1.347085675300 AA   -3.929791595871  -2.623484254899  -2.545622992642 Bohr   0.0
[INPUT] 15 O     -2.580923634700   0.759908859500  -0.849227704000 AA   -4.877238818000   1.436019624086  -1.604807777953 Bohr   0.0
[INPUT] 16 C     -2.753895325000  -0.346567468600  -1.438835699000 AA   -5.204107939970  -0.654917599338  -2.719005409357 Bohr   0.0
[INPUT] 17 H     -3.617699659800  -0.372379614500  -2.123091150300 AA   -6.836461557954  -0.703695485776  -4.012060811555 Bohr   0.0
[INPUT] 18 Fe    -0.379874189300  -1.792603362900  -0.200337730300 AA   -0.717858179568  -3.387529405855  -0.378583442684 Bohr   0.0
[INPUT] 19 O      0.642223180300  -2.237796553000  -1.892914517600 AA    1.213625921614  -4.228822607666  -3.577090015477 Bohr   0.0
[INPUT] 20 Fe     1.792603362900   0.379874189300  -0.200337730300 AA    3.387529405855   0.717858179568  -0.378583442684 Bohr   0.0
[INPUT] 21 O      2.237796553000  -0.642223180300  -1.892914517600 AA    4.228822607666  -1.213625921614  -3.577090015477 Bohr   0.0
[INPUT] 22 O      2.642534200000  -1.046960908100   0.961324672200 AA    4.993665912797  -1.978469379435   1.816640347245 Bohr   0.0
[INPUT] 23 Al    -1.236271642100   1.236271642100   0.350650148000 AA   -2.336214819135   2.336214819135   0.662632745258 Bohr   0.0
[INPUT] 24 O     -0.044950195400   0.044950195400   0.012762141300 AA   -0.084943558552   0.084943558552   0.024116951820 Bohr   0.0
[INPUT] 25 C      1.645528685000  -1.645528685000  -2.357112465400 AA    3.109598544766  -3.109598544766  -4.454297004404 Bohr   0.0
[INPUT] 26 H      2.056906298400  -2.056906298400  -3.294571291600 AA    3.886989567869  -3.886989567869  -6.225837438979 Bohr   0.0
[INPUT] 27 C      2.160924281100  -2.160924281100   1.277584186800 AA    4.083555067202  -4.083555067202   2.414284214127 Bohr   0.0
[INPUT] 28 H      2.796080543300  -2.796080543300   1.918244302400 AA    5.283826449062  -5.283826449062   3.624956371543 Bohr   0.0

nuclear repulsion = 3455.30471244119
number of shells = 192
number of NR pGTOs = 1065
number of NR cGTOs = 674
basis = {'C': 'cc-pvdz', 'H': 'cc-pvdz', 'O': 'cc-pvtz', 'Al': 'cc-pvtz', 'Fe': 'cc-pvtz'}
ecp = {}
CPU time:         2.45


******** <class 'pyscf.df.df_jk.DFROHF'> ********
method = DFROHF
initial guess = atom
damping factor = 0
level_shift factor = 0
DIIS = <class 'pyscf.scf.diis.CDIIS'>
diis_start_cycle = 1
diis_space = 8
diis_damp = 0
SCF conv_tol = 1e-09
SCF conv_tol_grad = None
SCF max_cycles = 1
direct_scf = False
chkfile to save SCF result = /scratch/local/jobs/17719330/tmp1nsf4pwl
max_memory 128000 MB (current use 76 MB)
num. doubly occ = 101  num. singly occ = 9
Set gradient conv threshold to 3.16228e-05
Initial guess from the superpostion of atomic densties.
Spherically averaged atomic HF for {'Al', 'O', 'Fe', 'H', 'C'}


******** <class 'pyscf.scf.atom_hf.AtomSphAverageRHF'> ********
method = AtomSphAverageRHF
initial guess = minao
damping factor = 0
level_shift factor = 0
DIIS = <class 'pyscf.scf.diis.CDIIS'>
diis_start_cycle = 1
diis_space = 8
diis_damp = 0
SCF conv_tol = 1e-09
SCF conv_tol_grad = None
SCF max_cycles = 50
direct_scf = True
direct_scf_tol = 1e-13
chkfile to save SCF result = /scratch/local/jobs/17719330/tmpmrxez0am
max_memory 128000 MB (current use 76 MB)
atom = O
Set gradient conv threshold to 3.16228e-05
Initial guess from minao.
init E= -74.2776996160121
cycle= 1 E= -74.2879632957298  delta_E= -0.0103  |g|=    0  |ddm|= 0.12
cycle= 2 E= -74.2889455295059  delta_E= -0.000982  |g|=    0  |ddm|= 0.0571
cycle= 3 E= -74.2891874928551  delta_E= -0.000242  |g|=    0  |ddm|= 0.0164
cycle= 4 E= -74.2891907662377  delta_E= -3.27e-06  |g|=    0  |ddm|= 0.00334
cycle= 5 E= -74.2891907667003  delta_E= -4.63e-10  |g|=    0  |ddm|= 2.73e-05
Extra cycle  E= -74.2891907667016  delta_E= -1.38e-12  |g|=    0  |ddm|= 2.08e-06
Atomic HF for atom  O  converged. SCF energy = -74.2891907667016



******** <class 'pyscf.scf.atom_hf.AtomSphAverageRHF'> ********
method = AtomSphAverageRHF
initial guess = minao
damping factor = 0
level_shift factor = 0
DIIS = <class 'pyscf.scf.diis.CDIIS'>
diis_start_cycle = 1
diis_space = 8
diis_damp = 0
SCF conv_tol = 1e-09
SCF conv_tol_grad = None
SCF max_cycles = 50
direct_scf = True
direct_scf_tol = 1e-13
chkfile to save SCF result = /scratch/local/jobs/17719330/tmpuk9_p0eb
max_memory 128000 MB (current use 100 MB)
atom = C
Set gradient conv threshold to 3.16228e-05
Initial guess from minao.
init E= -37.2786538116583
cycle= 1 E= -37.3229525149147  delta_E= -0.0443  |g|=    0  |ddm|= 0.403
cycle= 2 E= -37.3269979443145  delta_E= -0.00405  |g|=    0  |ddm|= 0.158
cycle= 3 E= -37.327416890501  delta_E= -0.000419  |g|=    0  |ddm|= 0.0324
cycle= 4 E= -37.3274218270201  delta_E= -4.94e-06  |g|=    0  |ddm|= 0.00651
cycle= 5 E= -37.3274218271774  delta_E= -1.57e-10  |g|=    0  |ddm|= 2.35e-05
Extra cycle  E= -37.3274218271781  delta_E= -6.68e-13  |g|=    0  |ddm|= 2.26e-06
Atomic HF for atom  C  converged. SCF energy = -37.3274218271781



******** 1 electron system ********
Atomic HF for atom  H  converged. SCF energy = -0.499278403419583



******** <class 'pyscf.scf.atom_hf.AtomSphAverageRHF'> ********
method = AtomSphAverageRHF
initial guess = minao
damping factor = 0
level_shift factor = 0
DIIS = <class 'pyscf.scf.diis.CDIIS'>
diis_start_cycle = 1
diis_space = 8
diis_damp = 0
SCF conv_tol = 1e-09
SCF conv_tol_grad = None
SCF max_cycles = 50
direct_scf = True
direct_scf_tol = 1e-13
chkfile to save SCF result = /scratch/local/jobs/17719330/tmpabg3x0qz
max_memory 128000 MB (current use 102 MB)
atom = Fe
Set gradient conv threshold to 3.16228e-05
Initial guess from minao.
init E= -1260.96738533155
cycle= 1 E= -1256.37714318082  delta_E= 4.59  |g|=    0  |ddm|= 4.24
cycle= 2 E= -1255.54237595451  delta_E= 0.835  |g|=    0  |ddm|=   15
cycle= 3 E= -1260.89038467173  delta_E= -5.35  |g|=    0  |ddm|= 13.7
cycle= 4 E= -1261.57047534209  delta_E= -0.68  |g|=    0  |ddm|= 0.824
cycle= 5 E= -1261.57622492119  delta_E= -0.00575  |g|=    0  |ddm|= 0.301
cycle= 6 E= -1261.57666902676  delta_E= -0.000444  |g|=    0  |ddm|= 0.0322
cycle= 7 E= -1261.57674274459  delta_E= -7.37e-05  |g|=    0  |ddm|= 0.0137
cycle= 8 E= -1261.57674388082  delta_E= -1.14e-06  |g|=    0  |ddm|= 0.00344
cycle= 9 E= -1261.57674388923  delta_E= -8.41e-09  |g|=    0  |ddm|= 0.000127
cycle= 10 E= -1261.57674388923  delta_E= 6.82e-13  |g|=    0  |ddm|= 3.35e-06
Extra cycle  E= -1261.57674388923  delta_E= -1.14e-12  |g|=    0  |ddm|= 3.97e-07
Atomic HF for atom  Fe  converged. SCF energy = -1261.57674388923



******** <class 'pyscf.scf.atom_hf.AtomSphAverageRHF'> ********
method = AtomSphAverageRHF
initial guess = minao
damping factor = 0
level_shift factor = 0
DIIS = <class 'pyscf.scf.diis.CDIIS'>
diis_start_cycle = 1
diis_space = 8
diis_damp = 0
SCF conv_tol = 1e-09
SCF conv_tol_grad = None
SCF max_cycles = 50
direct_scf = True
direct_scf_tol = 1e-13
chkfile to save SCF result = /scratch/local/jobs/17719330/tmpr0ns876n
max_memory 128000 MB (current use 155 MB)
atom = Al
Set gradient conv threshold to 3.16228e-05
Initial guess from minao.
init E= -241.752580224975
cycle= 1 E= -241.774394279578  delta_E= -0.0218  |g|=    0  |ddm|= 0.33
cycle= 2 E= -241.774822880148  delta_E= -0.000429  |g|=    0  |ddm|= 0.0589
cycle= 3 E= -241.77484101355  delta_E= -1.81e-05  |g|=    0  |ddm|= 0.00725
cycle= 4 E= -241.774841578884  delta_E= -5.65e-07  |g|=    0  |ddm|= 0.00216
cycle= 5 E= -241.774841604663  delta_E= -2.58e-08  |g|=    0  |ddm|= 0.000719
cycle= 6 E= -241.774841604811  delta_E= -1.48e-10  |g|=    0  |ddm|= 5.97e-05
Extra cycle  E= -241.774841604812  delta_E= -1.14e-12  |g|=    0  |ddm|= 4.44e-06
Atomic HF for atom  Al  converged. SCF energy = -241.774841604812

******** <class 'pyscf.df.df.DF'> ********
auxbasis = None
max_memory = 128000
Even tempered Gaussians are generated as DF auxbasis for  Fe H C Al O
init E= -3975.68788353038
  HOMO = -0.0424478076029286  LUMO = -0.0316668341931157
cycle= 1 E= -3969.65777955844  delta_E= 6.03  |g|= 3.14  |ddm|= 4.67
SCF not converged.
SCF energy = -3969.65777955844
Built 4 spin(local Sz)-shuffled LAS states from 1 reference LAS states
Built 28 singly-excited LAS states from 5 reference LAS states
Entering product-state fixed-point CI iteration
Cycle 0: max grad = 1.884708e-01 ; sigma = 0.000000e+00
Cycle 1: max grad = 1.229424e-05 ; sigma = 3.346305e-02
Cycle 2: max grad = 2.560975e-06 ; sigma = 8.625278e-11
Product_state fixed-point CI iteration converged after 2 cycles
Entering product-state fixed-point CI iteration
Cycle 0: max grad = 1.884708e-01 ; sigma = 0.000000e+00
Cycle 1: max grad = 5.393863e-06 ; sigma = 3.348211e-02
Cycle 2: max grad = 2.369173e-06 ; sigma = 5.265122e-12
Product_state fixed-point CI iteration converged after 2 cycles
Entering product-state fixed-point CI iteration
Cycle 0: max grad = 1.884708e-01 ; sigma = 0.000000e+00
Cycle 1: max grad = 3.475708e-06 ; sigma = 3.349033e-02
Cycle 2: max grad = 2.276478e-06 ; sigma = 6.231460e-12
Product_state fixed-point CI iteration converged after 2 cycles
Entering product-state fixed-point CI iteration
Cycle 0: max grad = 1.884708e-01 ; sigma = 0.000000e+00
Cycle 1: max grad = 3.522775e-06 ; sigma = 3.348759e-02
Cycle 2: max grad = 2.308122e-06 ; sigma = 8.569145e-12
Product_state fixed-point CI iteration converged after 2 cycles
Entering product-state fixed-point CI iteration
Cycle 0: max grad = 1.884708e-01 ; sigma = 0.000000e+00
Cycle 1: max grad = 8.368410e-06 ; sigma = 3.347392e-02
Cycle 2: max grad = 2.455328e-06 ; sigma = 1.879386e-11
Product_state fixed-point CI iteration converged after 2 cycles
Entering product-state fixed-point CI iteration
Cycle 0: max grad = 2.784311e-01 ; sigma = 0.000000e+00
Cycle 1: max grad = 4.634879e-05 ; sigma = 5.318269e-02
Cycle 2: max grad = 5.292951e-07 ; sigma = 5.085564e-08
Cycle 3: max grad = 8.523430e-10 ; sigma = 6.465939e-13
Product_state fixed-point CI iteration converged after 3 cycles
Entering product-state fixed-point CI iteration
Cycle 0: max grad = 3.067236e-01 ; sigma = 0.000000e+00
Cycle 1: max grad = 5.992311e-04 ; sigma = 1.169371e-01
Cycle 2: max grad = 2.250365e-06 ; sigma = 4.611400e-06
Cycle 3: max grad = 9.943609e-07 ; sigma = 9.094947e-12
Product_state fixed-point CI iteration converged after 3 cycles
Entering product-state fixed-point CI iteration
Cycle 0: max grad = 2.327562e-01 ; sigma = 0.000000e+00
Cycle 1: max grad = 5.648643e-04 ; sigma = 4.391494e-02
Cycle 2: max grad = 4.292256e-06 ; sigma = 2.400541e-06
Cycle 3: max grad = 8.594107e-07 ; sigma = 5.904610e-12
Product_state fixed-point CI iteration converged after 3 cycles
Entering product-state fixed-point CI iteration
Cycle 0: max grad = 3.083310e-01 ; sigma = 0.000000e+00
Cycle 1: max grad = 1.806373e-04 ; sigma = 5.815313e-03
Cycle 2: max grad = 3.471513e-06 ; sigma = 1.001354e-06
Cycle 3: max grad = 3.580480e-06 ; sigma = 1.040945e-10
Cycle 4: max grad = 1.643296e-06 ; sigma = 2.629008e-12
Product_state fixed-point CI iteration converged after 4 cycles
Entering product-state fixed-point CI iteration
Cycle 0: max grad = 2.551366e-01 ; sigma = 0.000000e+00
Cycle 1: max grad = 2.036378e-04 ; sigma = 8.150694e-02
Cycle 2: max grad = 1.928086e-06 ; sigma = 9.333423e-07
Cycle 3: max grad = 8.431799e-07 ; sigma = 2.671356e-10
Cycle 4: max grad = 4.869203e-07 ; sigma = 1.117328e-11
Product_state fixed-point CI iteration converged after 4 cycles
Entering product-state fixed-point CI iteration
Cycle 0: max grad = 3.077537e-01 ; sigma = 0.000000e+00
Cycle 1: max grad = 3.556113e-04 ; sigma = 3.436487e-02
Cycle 2: max grad = 1.955002e-06 ; sigma = 2.408482e-07
Cycle 3: max grad = 1.232657e-06 ; sigma = 1.877254e-11
Product_state fixed-point CI iteration converged after 3 cycles
Entering product-state fixed-point CI iteration
Cycle 0: max grad = 2.785850e-01 ; sigma = 0.000000e+00
Cycle 1: max grad = 4.595661e-05 ; sigma = 5.318012e-02
Cycle 2: max grad = 5.618072e-07 ; sigma = 5.927161e-08
Cycle 3: max grad = 7.166695e-10 ; sigma = 6.536993e-13
Product_state fixed-point CI iteration converged after 3 cycles
Entering product-state fixed-point CI iteration
Cycle 0: max grad = 3.067052e-01 ; sigma = 0.000000e+00
Cycle 1: max grad = 5.861469e-04 ; sigma = 1.170948e-01
Cycle 2: max grad = 2.135161e-06 ; sigma = 4.179263e-06
Cycle 3: max grad = 1.320258e-06 ; sigma = 9.009682e-12
Product_state fixed-point CI iteration converged after 3 cycles
Entering product-state fixed-point CI iteration
Cycle 0: max grad = 2.327512e-01 ; sigma = 0.000000e+00
Cycle 1: max grad = 5.626359e-04 ; sigma = 4.458519e-02
Cycle 2: max grad = 4.646999e-06 ; sigma = 4.939012e-06
Cycle 3: max grad = 6.020661e-07 ; sigma = 1.310951e-11
Product_state fixed-point CI iteration converged after 3 cycles
Entering product-state fixed-point CI iteration
Cycle 0: max grad = 3.083128e-01 ; sigma = 0.000000e+00
Cycle 1: max grad = 2.345229e-04 ; sigma = 5.828458e-03
Cycle 2: max grad = 5.566392e-06 ; sigma = 1.777866e-06
Cycle 3: max grad = 1.318146e-06 ; sigma = 3.041407e-10
Cycle 4: max grad = 1.083318e-06 ; sigma = 3.389289e-12
Product_state fixed-point CI iteration converged after 4 cycles
Entering product-state fixed-point CI iteration
Cycle 0: max grad = 2.550410e-01 ; sigma = 0.000000e+00
Cycle 1: max grad = 2.379875e-04 ; sigma = 8.171111e-02
Cycle 2: max grad = 1.927086e-06 ; sigma = 1.317811e-06
Cycle 3: max grad = 9.762213e-07 ; sigma = 3.389999e-10
Cycle 4: max grad = 5.648514e-07 ; sigma = 1.476153e-11
Product_state fixed-point CI iteration converged after 4 cycles
Entering product-state fixed-point CI iteration
Cycle 0: max grad = 3.077285e-01 ; sigma = 0.000000e+00
Cycle 1: max grad = 3.454360e-04 ; sigma = 3.460276e-02
Cycle 2: max grad = 2.317995e-06 ; sigma = 4.272844e-07
Cycle 3: max grad = 1.132493e-06 ; sigma = 8.867573e-12
Product_state fixed-point CI iteration converged after 3 cycles
Entering product-state fixed-point CI iteration
Cycle 0: max grad = 2.786705e-01 ; sigma = 0.000000e+00
Cycle 1: max grad = 4.651225e-05 ; sigma = 5.317862e-02
Cycle 2: max grad = 5.794670e-07 ; sigma = 6.407413e-08
Cycle 3: max grad = 6.451027e-10 ; sigma = 6.856737e-13
Product_state fixed-point CI iteration converged after 3 cycles
Entering product-state fixed-point CI iteration
Cycle 0: max grad = 3.067015e-01 ; sigma = 0.000000e+00
Cycle 1: max grad = 5.835233e-04 ; sigma = 1.171264e-01
Cycle 2: max grad = 2.112375e-06 ; sigma = 4.118257e-06
Cycle 3: max grad = 1.202589e-06 ; sigma = 7.403855e-12
Product_state fixed-point CI iteration converged after 3 cycles
Entering product-state fixed-point CI iteration
Cycle 0: max grad = 2.327502e-01 ; sigma = 0.000000e+00
Cycle 1: max grad = 5.629732e-04 ; sigma = 4.471923e-02
Cycle 2: max grad = 4.715402e-06 ; sigma = 5.349624e-06
Cycle 3: max grad = 5.617916e-07 ; sigma = 1.446665e-11
Product_state fixed-point CI iteration converged after 3 cycles
Entering product-state fixed-point CI iteration
Cycle 0: max grad = 3.083092e-01 ; sigma = 0.000000e+00
Cycle 1: max grad = 2.491446e-04 ; sigma = 5.831027e-03
Cycle 2: max grad = 6.002161e-06 ; sigma = 1.870328e-06
Cycle 3: max grad = 1.760538e-06 ; sigma = 3.922125e-10
Cycle 4: max grad = 1.220893e-06 ; sigma = 1.053024e-11
Product_state fixed-point CI iteration converged after 4 cycles
Entering product-state fixed-point CI iteration
Cycle 0: max grad = 2.550219e-01 ; sigma = 0.000000e+00
Cycle 1: max grad = 2.449739e-04 ; sigma = 8.175297e-02
Cycle 2: max grad = 1.955722e-06 ; sigma = 1.402521e-06
Cycle 3: max grad = 1.005238e-06 ; sigma = 3.551826e-10
Cycle 4: max grad = 5.831845e-07 ; sigma = 1.567813e-11
Product_state fixed-point CI iteration converged after 4 cycles
Entering product-state fixed-point CI iteration
Cycle 0: max grad = 3.077235e-01 ; sigma = 0.000000e+00
Cycle 1: max grad = 3.433519e-04 ; sigma = 3.465135e-02
Cycle 2: max grad = 2.389028e-06 ; sigma = 4.710340e-07
Cycle 3: max grad = 1.062282e-06 ; sigma = 6.508571e-12
Product_state fixed-point CI iteration converged after 3 cycles
Entering product-state fixed-point CI iteration
Cycle 0: max grad = 2.786876e-01 ; sigma = 0.000000e+00
Cycle 1: max grad = 4.673089e-05 ; sigma = 5.317831e-02
Cycle 2: max grad = 5.829607e-07 ; sigma = 6.504439e-08
Cycle 3: max grad = 6.311469e-10 ; sigma = 6.608047e-13
Product_state fixed-point CI iteration converged after 3 cycles
Entering product-state fixed-point CI iteration
Cycle 0: max grad = 3.067125e-01 ; sigma = 0.000000e+00
Cycle 1: max grad = 5.913872e-04 ; sigma = 1.170316e-01
Cycle 2: max grad = 2.179901e-06 ; sigma = 4.326966e-06
Cycle 3: max grad = 2.905984e-07 ; sigma = 7.304379e-12
Product_state fixed-point CI iteration converged after 3 cycles
Entering product-state fixed-point CI iteration
Cycle 0: max grad = 2.327532e-01 ; sigma = 0.000000e+00
Cycle 1: max grad = 5.619537e-04 ; sigma = 4.431709e-02
Cycle 2: max grad = 4.507687e-06 ; sigma = 4.019992e-06
Cycle 3: max grad = 6.936838e-07 ; sigma = 1.055867e-11
Product_state fixed-point CI iteration converged after 3 cycles
Entering product-state fixed-point CI iteration
Cycle 0: max grad = 3.083201e-01 ; sigma = 0.000000e+00
Cycle 1: max grad = 2.055908e-04 ; sigma = 5.823260e-03
Cycle 2: max grad = 4.711353e-06 ; sigma = 1.531160e-06
Cycle 3: max grad = 2.353117e-06 ; sigma = 2.384155e-10
Cycle 4: max grad = 1.042747e-06 ; sigma = 9.166001e-12
Product_state fixed-point CI iteration converged after 4 cycles
Entering product-state fixed-point CI iteration
Cycle 0: max grad = 2.550792e-01 ; sigma = 0.000000e+00
Cycle 1: max grad = 2.241311e-04 ; sigma = 8.162841e-02
Cycle 2: max grad = 1.913730e-06 ; sigma = 1.156262e-06
Cycle 3: max grad = 9.208399e-07 ; sigma = 3.084715e-10
Cycle 4: max grad = 5.292846e-07 ; sigma = 1.310241e-11
Product_state fixed-point CI iteration converged after 4 cycles
Entering product-state fixed-point CI iteration
Cycle 0: max grad = 3.077386e-01 ; sigma = 0.000000e+00
Cycle 1: max grad = 3.495559e-04 ; sigma = 3.450660e-02
Cycle 2: max grad = 2.174276e-06 ; sigma = 3.461726e-07
Cycle 3: max grad = 1.213587e-06 ; sigma = 1.325873e-11
Product_state fixed-point CI iteration converged after 3 cycles
Entering product-state fixed-point CI iteration
Cycle 0: max grad = 2.786363e-01 ; sigma = 0.000000e+00
Cycle 1: max grad = 4.607566e-05 ; sigma = 5.317923e-02
Cycle 2: max grad = 5.724407e-07 ; sigma = 6.214308e-08
Cycle 3: max grad = 6.733778e-10 ; sigma = 6.750156e-13
Product_state fixed-point CI iteration converged after 3 cycles
Entering product-state fixed-point CI iteration
Cycle 0: max grad = 2.327602e-01 ; sigma = 0.000000e+00
Cycle 1: max grad = 6.209126e-04 ; sigma = 4.337872e-02
Cycle 2: max grad = 3.992423e-06 ; sigma = 1.978465e-07
Cycle 3: max grad = 1.137854e-06 ; sigma = 3.957723e-12
Product_state fixed-point CI iteration converged after 3 cycles
Entering product-state fixed-point CI iteration
Cycle 0: max grad = 3.077738e-01 ; sigma = 0.000000e+00
Cycle 1: max grad = 3.634427e-04 ; sigma = 3.418067e-02
Cycle 2: max grad = 3.346335e-06 ; sigma = 1.317946e-07
Cycle 3: max grad = 4.962140e-07 ; sigma = 9.599432e-12
Product_state fixed-point CI iteration converged after 3 cycles
Entering product-state fixed-point CI iteration
Cycle 0: max grad = 2.785166e-01 ; sigma = 0.000000e+00
Cycle 1: max grad = 4.605856e-05 ; sigma = 5.318129e-02
Cycle 2: max grad = 5.474639e-07 ; sigma = 5.549295e-08
Cycle 3: max grad = 7.759520e-10 ; sigma = 5.755396e-13
Product_state fixed-point CI iteration converged after 3 cycles
LASSCF state-average energy = -3971.89018525224
LASSCF state 0 energy = -3971.89018525224
LASSCF state 1 energy = -3971.89049467745
LASSCF state 2 energy = -3971.8906273398
LASSCF state 3 energy = -3971.89058311557
LASSCF state 4 energy = -3971.89036204604
LASSCF state 5 energy = -3969.48093908276
LASSCF state 6 energy = -3970.98995513759
LASSCF state 7 energy = -3969.569277641
LASSCF state 8 energy = -3971.5111195471
LASSCF state 9 energy = -3969.35032714229
LASSCF state 10 energy = -3971.64263382622
LASSCF state 11 energy = -3969.48199401442
LASSCF state 12 energy = -3970.99011278563
LASSCF state 13 energy = -3969.56971596364
LASSCF state 14 energy = -3971.51146460594
LASSCF state 15 energy = -3969.3507335344
LASSCF state 16 energy = -3971.64312475168
LASSCF state 17 energy = -3969.48258018069
LASSCF state 18 energy = -3970.99014433942
LASSCF state 19 energy = -3969.56980395116
LASSCF state 20 energy = -3971.51153490949
LASSCF state 21 energy = -3969.35081586567
LASSCF state 22 energy = -3971.64322411903
LASSCF state 23 energy = -3969.48269742185
LASSCF state 24 energy = -3970.99004970236
LASSCF state 25 energy = -3969.56954031213
LASSCF state 26 energy = -3971.51132530586
LASSCF state 27 energy = -3969.35056993026
LASSCF state 28 energy = -3971.64292719394
LASSCF state 29 energy = -3969.48234570627
LASSCF state 30 energy = -3969.56892890982
LASSCF state 31 energy = -3971.64224828029
LASSCF state 32 energy = -3969.48152512913
Entering product-state fixed-point CI iteration
Cycle 0: max grad = 1.192931e+03 ; sigma = 0.000000e+00
Cycle 1: max grad = 4.940665e-05 ; sigma = 6.295409e-11
Product_state fixed-point CI iteration converged after 1 cycles
Entering product-state fixed-point CI iteration
Cycle 0: max grad = 1.192999e+03 ; sigma = 0.000000e+00
Cycle 1: max grad = 3.551507e-05 ; sigma = 5.989875e-11
Product_state fixed-point CI iteration converged after 1 cycles
Entering product-state fixed-point CI iteration
Cycle 0: max grad = 1.193029e+03 ; sigma = 0.000000e+00
Cycle 1: max grad = 2.376447e-05 ; sigma = 5.865530e-11
Product_state fixed-point CI iteration converged after 1 cycles
Entering product-state fixed-point CI iteration
Cycle 0: max grad = 1.193019e+03 ; sigma = 0.000000e+00
Cycle 1: max grad = 1.720934e-05 ; sigma = 5.901768e-11
Product_state fixed-point CI iteration converged after 1 cycles
Entering product-state fixed-point CI iteration
Cycle 0: max grad = 1.192970e+03 ; sigma = 0.000000e+00
Cycle 1: max grad = 2.268281e-05 ; sigma = 6.117773e-11
Product_state fixed-point CI iteration converged after 1 cycles
Entering product-state fixed-point CI iteration
Cycle 0: max grad = 7.520321e+02 ; sigma = 0.000000e+00
Cycle 1: max grad = 9.181158e-12 ; sigma = 0.000000e+00
Product_state fixed-point CI iteration converged after 1 cycles
Entering product-state fixed-point CI iteration
Cycle 0: max grad = 1.105311e+03 ; sigma = 0.000000e+00
Cycle 1: max grad = 2.389836e-04 ; sigma = 9.244161e-11
Cycle 2: max grad = 1.377644e-06 ; sigma = 2.060574e-13
Product_state fixed-point CI iteration converged after 2 cycles
Entering product-state fixed-point CI iteration
Cycle 0: max grad = 8.004334e+02 ; sigma = 0.000000e+00
Cycle 1: max grad = 7.202035e-07 ; sigma = 6.605561e-11
Product_state fixed-point CI iteration converged after 1 cycles
Entering product-state fixed-point CI iteration
Cycle 0: max grad = 7.638721e+02 ; sigma = 0.000000e+00
Cycle 1: max grad = 3.314613e-03 ; sigma = 1.180172e-03
Cycle 2: max grad = 1.788553e-06 ; sigma = 1.799089e-07
Cycle 3: max grad = 1.853806e-06 ; sigma = 1.055156e-11
Product_state fixed-point CI iteration converged after 3 cycles
Entering product-state fixed-point CI iteration
Cycle 0: max grad = 7.611116e+02 ; sigma = 0.000000e+00
Cycle 1: max grad = 1.920173e-04 ; sigma = 1.215504e-03
Cycle 2: max grad = 1.683168e-06 ; sigma = 4.569065e-07
Cycle 3: max grad = 2.175338e-06 ; sigma = 2.446754e-11
Product_state fixed-point CI iteration converged after 3 cycles
Entering product-state fixed-point CI iteration
Cycle 0: max grad = 7.516818e+02 ; sigma = 0.000000e+00
Cycle 1: max grad = 2.306229e-03 ; sigma = 3.279865e-11
Cycle 2: max grad = 1.078872e-06 ; sigma = 5.684342e-14
Product_state fixed-point CI iteration converged after 2 cycles
Entering product-state fixed-point CI iteration
Cycle 0: max grad = 7.520388e+02 ; sigma = 0.000000e+00
Cycle 1: max grad = 8.075158e-12 ; sigma = 2.842171e-14
Product_state fixed-point CI iteration converged after 1 cycles
Entering product-state fixed-point CI iteration
Cycle 0: max grad = 1.104930e+03 ; sigma = 0.000000e+00
Cycle 1: max grad = 1.141872e-03 ; sigma = 9.057999e-11
Cycle 2: max grad = 1.300527e-06 ; sigma = 4.192202e-13
Product_state fixed-point CI iteration converged after 2 cycles
Entering product-state fixed-point CI iteration
Cycle 0: max grad = 8.004452e+02 ; sigma = 0.000000e+00
Cycle 1: max grad = 1.082567e-06 ; sigma = 8.446221e-11
Product_state fixed-point CI iteration converged after 1 cycles
Entering product-state fixed-point CI iteration
Cycle 0: max grad = 9.879254e+02 ; sigma = 0.000000e+00
Cycle 1: max grad = 3.227008e-03 ; sigma = 1.431940e-03
Cycle 2: max grad = 2.482414e-06 ; sigma = 5.088457e-07
Cycle 3: max grad = 2.279117e-06 ; sigma = 3.464180e-10
Cycle 4: max grad = 1.745867e-06 ; sigma = 2.451372e-12
Product_state fixed-point CI iteration converged after 4 cycles
Entering product-state fixed-point CI iteration
Cycle 0: max grad = 7.529224e+02 ; sigma = 0.000000e+00
Cycle 1: max grad = 1.709754e-04 ; sigma = 1.541943e-03
Cycle 2: max grad = 1.333349e-06 ; sigma = 2.170458e-07
Cycle 3: max grad = 1.394532e-06 ; sigma = 1.929124e-11
Product_state fixed-point CI iteration converged after 3 cycles
Entering product-state fixed-point CI iteration
Cycle 0: max grad = 9.910198e+02 ; sigma = 0.000000e+00
Cycle 1: max grad = 2.948546e-03 ; sigma = 2.378187e-11
Cycle 2: max grad = 2.424572e-06 ; sigma = 1.776357e-13
Product_state fixed-point CI iteration converged after 2 cycles
Entering product-state fixed-point CI iteration
Cycle 0: max grad = 7.520423e+02 ; sigma = 0.000000e+00
Cycle 1: max grad = 7.702745e-12 ; sigma = 3.552714e-15
Product_state fixed-point CI iteration converged after 1 cycles
Entering product-state fixed-point CI iteration
Cycle 0: max grad = 1.104864e+03 ; sigma = 0.000000e+00
Cycle 1: max grad = 1.424265e-03 ; sigma = 7.783996e-11
Cycle 2: max grad = 1.258916e-06 ; sigma = 4.405365e-13
Product_state fixed-point CI iteration converged after 2 cycles
Entering product-state fixed-point CI iteration
Cycle 0: max grad = 8.004476e+02 ; sigma = 0.000000e+00
Cycle 1: max grad = 5.383746e-07 ; sigma = 9.223200e-11
Product_state fixed-point CI iteration converged after 1 cycles
Entering product-state fixed-point CI iteration
Cycle 0: max grad = 9.884296e+02 ; sigma = 0.000000e+00
Cycle 1: max grad = 2.517605e-03 ; sigma = 1.484257e-03
Cycle 2: max grad = 2.978778e-06 ; sigma = 8.707190e-07
Cycle 3: max grad = 1.749338e-06 ; sigma = 8.765539e-10
Cycle 4: max grad = 7.137678e-07 ; sigma = 2.252420e-12
Product_state fixed-point CI iteration converged after 4 cycles
Entering product-state fixed-point CI iteration
Cycle 0: max grad = 7.512445e+02 ; sigma = 0.000000e+00
Cycle 1: max grad = 1.668977e-04 ; sigma = 1.608640e-03
Cycle 2: max grad = 1.296738e-06 ; sigma = 1.826413e-07
Cycle 3: max grad = 1.284728e-06 ; sigma = 1.826450e-11
Product_state fixed-point CI iteration converged after 3 cycles
Entering product-state fixed-point CI iteration
Cycle 0: max grad = 7.516874e+02 ; sigma = 0.000000e+00
Cycle 1: max grad = 1.229101e-03 ; sigma = 2.194156e-11
Cycle 2: max grad = 1.093270e-06 ; sigma = 1.989520e-13
Product_state fixed-point CI iteration converged after 2 cycles
Entering product-state fixed-point CI iteration
Cycle 0: max grad = 7.520430e+02 ; sigma = 0.000000e+00
Cycle 1: max grad = 7.731099e-12 ; sigma = 2.131628e-14
Product_state fixed-point CI iteration converged after 1 cycles
Entering product-state fixed-point CI iteration
Cycle 0: max grad = 1.105079e+03 ; sigma = 0.000000e+00
Cycle 1: max grad = 4.093296e-04 ; sigma = 1.216449e-11
Cycle 2: max grad = 1.220080e-06 ; sigma = 2.415845e-13
Product_state fixed-point CI iteration converged after 2 cycles
Entering product-state fixed-point CI iteration
Cycle 0: max grad = 8.004405e+02 ; sigma = 0.000000e+00
Cycle 1: max grad = 9.252384e-07 ; sigma = 7.367973e-11
Product_state fixed-point CI iteration converged after 1 cycles
Entering product-state fixed-point CI iteration
Cycle 0: max grad = 9.869014e+02 ; sigma = 0.000000e+00
Cycle 1: max grad = 2.221540e-03 ; sigma = 1.329262e-03
Cycle 2: max grad = 1.624036e-06 ; sigma = 9.446389e-08
Cycle 3: max grad = 1.446947e-06 ; sigma = 1.847411e-11
Product_state fixed-point CI iteration converged after 3 cycles
Entering product-state fixed-point CI iteration
Cycle 0: max grad = 7.562386e+02 ; sigma = 0.000000e+00
Cycle 1: max grad = 1.792584e-04 ; sigma = 1.409890e-03
Cycle 2: max grad = 1.620874e-06 ; sigma = 2.990503e-07
Cycle 3: max grad = 1.494273e-06 ; sigma = 2.140865e-11
Product_state fixed-point CI iteration converged after 3 cycles
Entering product-state fixed-point CI iteration
Cycle 0: max grad = 7.516848e+02 ; sigma = 0.000000e+00
Cycle 1: max grad = 1.291790e-03 ; sigma = 2.758327e-11
Cycle 2: max grad = 2.685780e-06 ; sigma = 1.634248e-13
Product_state fixed-point CI iteration converged after 2 cycles
Entering product-state fixed-point CI iteration
Cycle 0: max grad = 7.520409e+02 ; sigma = 0.000000e+00
Cycle 1: max grad = 7.748202e-12 ; sigma = 1.172396e-13
Product_state fixed-point CI iteration converged after 1 cycles
Entering product-state fixed-point CI iteration
Cycle 0: max grad = 8.004235e+02 ; sigma = 0.000000e+00
Cycle 1: max grad = 6.240443e-07 ; sigma = 6.889422e-11
Product_state fixed-point CI iteration converged after 1 cycles
Entering product-state fixed-point CI iteration
Cycle 0: max grad = 7.516770e+02 ; sigma = 0.000000e+00
Cycle 1: max grad = 8.934707e-04 ; sigma = 1.083578e-11
Cycle 2: max grad = 1.560206e-06 ; sigma = 2.131628e-14
Product_state fixed-point CI iteration converged after 2 cycles
Entering product-state fixed-point CI iteration
Cycle 0: max grad = 7.520358e+02 ; sigma = 0.000000e+00
Cycle 1: max grad = 8.544263e-12 ; sigma = 1.776357e-14
Product_state fixed-point CI iteration converged after 1 cycles
LASSCF state-average energy = -3971.8901852523
LASSCF state 0 energy = -3971.8901852523
LASSCF state 1 energy = -3971.89049467751
LASSCF state 2 energy = -3971.89062733986
LASSCF state 3 energy = -3971.89058311563
LASSCF state 4 energy = -3971.89036204611
LASSCF state 5 energy = -3969.48093908276
LASSCF state 6 energy = -3970.98995513768
LASSCF state 7 energy = -3969.56927764107
LASSCF state 8 energy = -3971.51229990126
LASSCF state 9 energy = -3969.35154310363
LASSCF state 10 energy = -3971.64263382626
LASSCF state 11 energy = -3969.48199401442
LASSCF state 12 energy = -3970.99011278572
LASSCF state 13 energy = -3969.56971596372
LASSCF state 14 energy = -3971.5128970515
LASSCF state 15 energy = -3969.3522756948
LASSCF state 16 energy = -3971.6431247517
LASSCF state 17 energy = -3969.48258018069
LASSCF state 18 energy = -3970.9901443395
LASSCF state 19 energy = -3969.56980395125
LASSCF state 20 energy = -3971.51302003568
LASSCF state 21 energy = -3969.35242468793
LASSCF state 22 energy = -3971.64322411905
LASSCF state 23 energy = -3969.48269742185
LASSCF state 24 energy = -3970.99004970238
LASSCF state 25 energy = -3969.56954031221
LASSCF state 26 energy = -3971.51265466075
LASSCF state 27 energy = -3969.35198011903
LASSCF state 28 energy = -3971.64292719396
LASSCF state 29 energy = -3969.48234570627
LASSCF state 30 energy = -3969.56892890989
LASSCF state 31 energy = -3971.6422482803
LASSCF state 32 energy = -3969.48152512913
LASSI op_o0 memory check: 2099292.087168 MB needed of 119994.986496 MB available (128000 MB max)
Symmetry analysis of 33 LAS rootspaces:
 ix            Energy  <S**2>  Neleca  Nelecb  Nelec   Wfnsym
  0  -3971.8901852523   4.750       6       5      11       A
  1  -3971.8904946775  11.750       6       5      11       A
  2  -3971.8906273399  14.750       6       5      11       A
  3  -3971.8905831156  13.750       6       5      11       A
  4  -3971.8903620461   8.750       6       5      11       A
  5  -3969.4809390828   5.750       6       5      11       A
  6  -3970.9899551377   3.750       6       5      11       A
  7  -3969.5692776411   8.750       6       5      11       A
  8  -3971.5122999013   3.750       6       5      11       A
  9  -3969.3515431036   9.750       6       5      11       A
 10  -3971.6426338263   8.750       6       5      11       A
 11  -3969.4819940144  14.750       6       5      11       A
 12  -3970.9901127857   8.750       6       5      11       A
 13  -3969.5697159637  13.750       6       5      11       A
 14  -3971.5128970515   8.750       6       5      11       A
 15  -3969.3522756948  14.750       6       5      11       A
 16  -3971.6431247517  13.750       6       5      11       A
 17  -3969.4825801807  19.750       6       5      11       A
 18  -3970.9901443395   9.750       6       5      11       A
 19  -3969.5698039513  14.750       6       5      11       A
 20  -3971.5130200357   9.750       6       5      11       A
 21  -3969.3524246879  15.750       6       5      11       A
 22  -3971.6432241191  14.750       6       5      11       A
 23  -3969.4826974219  20.750       6       5      11       A
 24  -3970.9900497024   6.750       6       5      11       A
 25  -3969.5695403122  11.750       6       5      11       A
 26  -3971.5126546607   6.750       6       5      11       A
 27  -3969.3519801190  12.750       6       5      11       A
 28  -3971.6429271940  11.750       6       5      11       A
 29  -3969.4823457063  17.750       6       5      11       A
 30  -3969.5689289099   4.750       6       5      11       A
 31  -3971.6422482803   4.750       6       5      11       A
 32  -3969.4815251291  10.750       6       5      11       A
Build + diag H matrix LASSI symmetry block 0
['neleca', 'nelecb', 'irrep'] = (6, 5, 0)
(33 rootspaces; 7425 states)
LASSI eigenvalues (7425 total):
 ix            Energy  <S**2>  Neleca  Nelecb  Wfnsym
  0  -3971.8917195739   0.750       6       5       A
  1  -3971.8916663983   3.750       6       5       A
  2  -3971.8915795980   8.750       6       5       A
  3  -3971.8914621872  15.750       6       5       A
  4  -3971.8913184583  24.750       6       5       A
  5  -3971.8720846731   0.750       6       5       A
  6  -3971.8719828586   3.750       6       5       A
  7  -3971.8718127028   8.750       6       5       A
  8  -3971.8715731012  15.750       6       5       A
  9  -3971.8712626168  24.750       6       5       A
 10  -3971.8708478304   0.750       6       5       A
 11  -3971.8707751391   3.750       6       5       A
 12  -3971.8706529127   8.750       6       5       A
 13  -3971.8704791472  15.750       6       5       A
 14  -3971.8702510585  24.750       6       5       A
 15  -3971.8472885349  24.750       6       5       A
 16  -3971.8471264711  15.750       6       5       A
 17  -3971.8469964223   8.750       6       5       A
 18  -3971.8469014358   3.750       6       5       A
 19  -3971.8468437468   0.750       6       5       A
 20  -3971.8249346864   0.755       6       5       A
 21  -3971.8248936023   3.747       6       5       A
 22  -3971.8248262434   8.749       6       5       A
 23  -3971.8247302612  15.750       6       5       A
 24  -3971.8246037214  24.750       6       5       A
 25  -3971.6435997414  24.750       6       5       A
 26  -3971.6429073036  15.750       6       5       A
 27  -3971.6423963269   8.750       6       5       A
 28  -3971.6420464573   3.750       6       5       A
 29  -3971.6418426471   0.750       6       5       A
 30  -3971.6416935187  24.750       6       5       A
 31  -3971.6405368129  15.750       6       5       A
 32  -3971.6396274960   8.750       6       5       A
 33  -3971.6389727499   3.750       6       5       A
 34  -3971.6385777862   0.750       6       5       A
 35  -3971.6357255400  24.750       6       5       A
 36  -3971.6345344167  15.750       6       5       A
 37  -3971.6335950507   8.750       6       5       A
 38  -3971.6329174296   3.750       6       5       A
 39  -3971.6325082766   0.750       6       5       A
 40  -3971.6269276445  24.750       6       5       A
 41  -3971.6265093510  15.750       6       5       A
 42  -3971.6261486336   8.750       6       5       A
 43  -3971.6258713056   3.750       6       5       A
 44  -3971.6256968549   0.750       6       5       A
 45  -3971.6008159364  24.750       6       5       A
 46  -3971.5994957816  15.750       6       5       A
 47  -3971.5984617955   8.750       6       5       A
 48  -3971.5977193009   3.750       6       5       A
 49  -3971.5972722042   0.750       6       5       A
 50  -3971.5140309828  15.750       6       5       A
 51  -3971.5133469215   8.750       6       5       A
 52  -3971.5129026337   3.750       6       5       A
 53  -3971.5126522369   0.750       6       5       A
 54  -3971.5120409576  15.750       6       5       A
 55  -3971.5115980901   8.750       6       5       A
 56  -3971.5115056536  15.750       6       5       A
 57  -3971.5113010855   3.750       6       5       A
 58  -3971.5111288713   0.750       6       5       A
 59  -3971.5102225359   8.750       6       5       A
 60  -3971.5100850199  15.750       6       5       A
 61  -3971.5095258318  15.750       6       5       A
 62  -3971.5094795880   8.750       6       5       A
 63  -3971.5093509669   3.750       6       5       A
 64  -3971.5090647208   3.750       6       5       A
 65  -3971.5088482256   0.750       6       5       A
 66  -3971.5088226347   0.752       6       5       A
 67  -3971.5088216853   8.748       6       5       A
 68  -3971.5083364148   3.750       6       5       A
 69  -3971.5080521949   0.750       6       5       A
 70  -3971.5076148544  15.750       6       5       A
 71  -3971.5065448474   8.750       6       5       A
 72  -3971.5057493698   3.750       6       5       A
 73  -3971.5055182913  15.750       6       5       A
 74  -3971.5052572984   0.750       6       5       A
 75  -3971.5042093028   8.750       6       5       A
 76  -3971.5035288959  15.750       6       5       A
 77  -3971.5033184163   3.750       6       5       A
 78  -3971.5028036265   0.750       6       5       A
 79  -3971.5027513922   8.750       6       5       A
 80  -3971.5022122181   3.750       6       5       A
 81  -3971.5018948903   0.750       6       5       A
 82  -3971.5016700669  15.750       6       5       A
 83  -3971.5005735756   8.750       6       5       A
 84  -3971.4997623962   3.750       6       5       A
 85  -3971.4992623154   0.750       6       5       A
 86  -3971.4974805811  15.750       6       5       A
 87  -3971.4968787038   8.750       6       5       A
 88  -3971.4964351917   3.750       6       5       A
 89  -3971.4961653031   0.750       6       5       A
 90  -3971.4959615841  15.750       6       5       A
 91  -3971.4955774901   8.750       6       5       A
 92  -3971.4953389459   3.750       6       5       A
 93  -3971.4952061874   0.750       6       5       A
 94  -3971.4945847979  15.750       6       5       A
 95  -3971.4944867706  15.750       6       5       A
 96  -3971.4941152571   8.750       6       5       A
 97  -3971.4938632170   8.750       6       5       A
 98  -3971.4937601561   3.750       6       5       A
 99  -3971.4935552940  15.750       6       5       A
Remaining 7325 eigenvalues truncated; increase verbosity to print them all
Natural-orbital analysis for state(s) [0, 1, 2, 3, 4]
LASSI op_o0 memory check: 2099292.087168 MB needed of 118766.317568 MB available (128000 MB max)
Delocalized natural orbitals do not reflect LAS fragmentation
Natural occ [1.9869369  1.03478664 1.01468862 1.0123052  1.00144662 0.99778405
 0.9928089  0.98162443 0.97936492 0.95940205 0.01195775 0.00422892
 0.00407052 0.00389574 0.00347816 0.00229613 0.00228937 0.00227285
 0.00224908 0.00211316]
Natural orbital (expansion on AOs) in CAS space
               #1        #2        #3        #4        #5       
0 O 1s          -0.00011  -0.00013   0.00013   0.00035  -0.00025
0 O 2s           0.00160   0.00137  -0.00069   0.00140   0.00119
0 O 3s           0.00057   0.00046  -0.00028   0.00030   0.00044
0 O 4s           0.00477   0.00345  -0.00122  -0.00371   0.00420
0 O 2px          0.00476   0.00113   0.00003   0.00540  -0.00064
0 O 2py          0.00048  -0.00111   0.00190   0.00179  -0.00185
0 O 2pz          0.00216   0.00088  -0.00170  -0.00233   0.00130
0 O 3px          0.00569   0.00156   0.00021   0.00643  -0.00048
0 O 3py          0.00041  -0.00115   0.00190   0.00182  -0.00203
0 O 3pz          0.00284   0.00096  -0.00187  -0.00276   0.00133
0 O 4px          0.00791   0.00114  -0.00020   0.00687  -0.00171
0 O 4py          0.00002  -0.00281   0.00443   0.00355  -0.00358
0 O 4pz          0.00399   0.00191  -0.00400  -0.00202   0.00277
0 O 3dxy         0.00012   0.00003  -0.00005   0.00002  -0.00001
0 O 3dyz         0.00007   0.00003   0.00001   0.00005   0.00002
0 O 3dz^2       -0.00003  -0.00000  -0.00002  -0.00008  -0.00001
0 O 3dxz        -0.00004   0.00002   0.00001   0.00001   0.00006
0 O 3dx2-y2      0.00004   0.00001  -0.00004  -0.00007   0.00002
0 O 4dxy         0.00026  -0.00018  -0.00004  -0.00013  -0.00033
0 O 4dyz         0.00011   0.00027  -0.00004   0.00019   0.00041
0 O 4dz^2       -0.00016  -0.00019   0.00015  -0.00012  -0.00022
0 O 4dxz         0.00015   0.00005  -0.00008   0.00036   0.00019
0 O 4dx2-y2     -0.00017  -0.00003   0.00008  -0.00014  -0.00018
0 O 4f-3         0.00003   0.00003  -0.00005  -0.00001   0.00006
0 O 4f-2         0.00003  -0.00001  -0.00003  -0.00006  -0.00003
0 O 4f-1        -0.00001   0.00004  -0.00003   0.00004   0.00007
0 O 4f+0         0.00001   0.00002   0.00001   0.00005   0.00003
0 O 4f+1        -0.00001  -0.00000   0.00001  -0.00003  -0.00001
0 O 4f+2         0.00000   0.00001   0.00002   0.00009   0.00004
0 O 4f+3         0.00003  -0.00001  -0.00002  -0.00005  -0.00007
1 O 1s           0.00030   0.00011   0.00020   0.00017  -0.00007
1 O 2s           0.00691  -0.00869   0.00278   0.00028  -0.02333
1 O 3s           0.00194  -0.00253   0.00066  -0.00002  -0.00675
1 O 4s           0.01120  -0.01775   0.00191  -0.00192  -0.04041
1 O 2px         -0.00521  -0.00908   0.00790  -0.00145  -0.01442
1 O 2py         -0.00723  -0.00279   0.00872   0.00808  -0.00104
1 O 2pz         -0.00494   0.00646  -0.00586  -0.01129   0.01848
1 O 3px         -0.00590  -0.01183   0.01024  -0.00166  -0.01856
1 O 3py         -0.00811  -0.00369   0.01073   0.01008  -0.00255
1 O 3pz         -0.00600   0.00873  -0.00768  -0.01417   0.02390
1 O 4px         -0.01106  -0.01295   0.00915  -0.00107  -0.02014
1 O 4py         -0.01201  -0.00602   0.01248   0.00836  -0.00366
1 O 4pz         -0.00708   0.00939  -0.00660  -0.01702   0.02677
1 O 3dxy         0.00023  -0.00014  -0.00024  -0.00044  -0.00040
1 O 3dyz        -0.00086  -0.00001   0.00032   0.00022   0.00045
1 O 3dz^2       -0.00066   0.00007  -0.00007  -0.00059   0.00033
1 O 3dxz         0.00002  -0.00044   0.00015   0.00001  -0.00089
1 O 3dx2-y2      0.00051   0.00035  -0.00031   0.00004   0.00027
1 O 4dxy         0.00038  -0.00046  -0.00089  -0.00112  -0.00094
1 O 4dyz        -0.00243  -0.00005   0.00079   0.00057   0.00120
1 O 4dz^2       -0.00269   0.00002  -0.00010  -0.00204   0.00064
1 O 4dxz        -0.00055  -0.00099   0.00060   0.00030  -0.00192
1 O 4dx2-y2      0.00215   0.00125  -0.00122   0.00054   0.00084
1 O 4f-3         0.00024   0.00014  -0.00026   0.00001   0.00015
1 O 4f-2        -0.00012  -0.00014   0.00022   0.00015  -0.00031
1 O 4f-1         0.00007   0.00007  -0.00010  -0.00036   0.00017
1 O 4f+0         0.00040  -0.00001  -0.00008   0.00009  -0.00009
1 O 4f+1        -0.00010   0.00014   0.00001   0.00000   0.00025
1 O 4f+2         0.00014  -0.00013  -0.00008  -0.00012  -0.00025
1 O 4f+3        -0.00006   0.00010   0.00008   0.00022   0.00013
2 C 1s          -0.00026   0.00023   0.00021   0.00039   0.00062
2 C 2s          -0.00603   0.00231   0.00298   0.00468   0.00826
2 C 3s          -0.00884   0.00053   0.00301   0.00800   0.00368
2 C 2px         -0.01695  -0.00170   0.00522  -0.00282   0.00625
2 C 2py          0.00307  -0.00511  -0.00070  -0.00343  -0.01237
2 C 2pz         -0.00534  -0.00381  -0.00021  -0.00923  -0.00536
2 C 3px         -0.01326  -0.00085   0.00123  -0.00451   0.00331
2 C 3py         -0.00036  -0.00403   0.00416  -0.00058  -0.00655
2 C 3pz         -0.00497  -0.00281   0.00262  -0.00483  -0.00327
2 C 3dxy         0.00216   0.00038  -0.00053   0.00110  -0.00064
2 C 3dyz         0.00083   0.00009   0.00022   0.00142  -0.00010
2 C 3dz^2        0.00093  -0.00101   0.00102   0.00141  -0.00235
2 C 3dxz        -0.00031   0.00095  -0.00086  -0.00056   0.00202
2 C 3dx2-y2     -0.00063  -0.00194   0.00197   0.00090  -0.00325
3 H 1s           0.00137  -0.00405   0.00348   0.00348  -0.00915
3 H 2s           0.00134  -0.00434   0.00375   0.00452  -0.01118
3 H 2px         -0.00050   0.00002   0.00012   0.00003   0.00026
3 H 2py          0.00000  -0.00014  -0.00010  -0.00004  -0.00033
3 H 2pz         -0.00000  -0.00016  -0.00005  -0.00024  -0.00025
4 O 1s           0.00022   0.00008   0.00003  -0.00008  -0.00004
4 O 2s          -0.00050  -0.00831   0.00055  -0.00852  -0.02770
4 O 3s          -0.00027  -0.00239   0.00010  -0.00231  -0.00775
4 O 4s          -0.00311  -0.01303   0.00033  -0.01274  -0.04083
4 O 2px          0.00043  -0.00797  -0.00797   0.00646  -0.00356
4 O 2py          0.00059   0.00308  -0.00811   0.01706   0.02900
4 O 2pz         -0.00003  -0.00188   0.00458  -0.00683  -0.02071
4 O 3px          0.00063  -0.00976  -0.01002   0.00820  -0.00363
4 O 3py          0.00045   0.00396  -0.01071   0.02223   0.03719
4 O 3pz         -0.00010  -0.00268   0.00597  -0.00924  -0.02715
4 O 4px         -0.00086  -0.00781  -0.00905   0.00930   0.00163
4 O 4py          0.00412   0.00371  -0.00915   0.02047   0.03492
4 O 4pz         -0.00139  -0.00256   0.00499  -0.00767  -0.02732
4 O 3dxy         0.00002  -0.00046  -0.00022  -0.00009  -0.00086
4 O 3dyz        -0.00002  -0.00007   0.00006  -0.00014  -0.00049
4 O 3dz^2        0.00001  -0.00021  -0.00010  -0.00011  -0.00037
4 O 3dxz        -0.00004   0.00022   0.00007  -0.00008   0.00039
4 O 3dx2-y2     -0.00006   0.00015   0.00029  -0.00047  -0.00026
4 O 4dxy        -0.00004  -0.00085  -0.00030  -0.00067  -0.00173
4 O 4dyz         0.00002   0.00025   0.00035  -0.00026  -0.00058
4 O 4dz^2       -0.00016  -0.00050  -0.00006  -0.00018  -0.00069
4 O 4dxz         0.00005   0.00070   0.00000  -0.00004   0.00129
4 O 4dx2-y2      0.00004   0.00058   0.00121  -0.00159  -0.00089
4 O 4f-3        -0.00003   0.00020   0.00003   0.00010   0.00040
4 O 4f-2         0.00002  -0.00012  -0.00013   0.00009   0.00017
4 O 4f-1         0.00000  -0.00005   0.00003  -0.00010  -0.00029
4 O 4f+0         0.00001   0.00000   0.00003  -0.00005   0.00000
4 O 4f+1        -0.00001   0.00018   0.00008  -0.00004   0.00012
4 O 4f+2         0.00002  -0.00006   0.00008  -0.00014  -0.00038
4 O 4f+3         0.00004  -0.00012  -0.00025   0.00028   0.00025
5 O 1s          -0.00012   0.00020   0.00012  -0.00014  -0.00012
5 O 2s           0.00061   0.00100  -0.00076   0.00108   0.00217
5 O 3s           0.00023   0.00022  -0.00024   0.00033   0.00068
5 O 4s           0.00384   0.00015  -0.00146   0.00371   0.00087
5 O 2px          0.00010  -0.00013  -0.00182   0.00118   0.00212
5 O 2py         -0.00133   0.00077   0.00137  -0.00046   0.00189
5 O 2pz          0.00070   0.00129   0.00163  -0.00309  -0.00269
5 O 3px          0.00031  -0.00014  -0.00209   0.00108   0.00231
5 O 3py         -0.00168   0.00084   0.00179  -0.00115   0.00185
5 O 3pz          0.00059   0.00163   0.00189  -0.00352  -0.00289
5 O 4px          0.00047   0.00011  -0.00346   0.00251   0.00241
5 O 4py         -0.00212   0.00131   0.00139   0.00048   0.00391
5 O 4pz          0.00226   0.00238   0.00268  -0.00475  -0.00441
5 O 3dxy        -0.00000  -0.00002  -0.00005   0.00003   0.00001
5 O 3dyz         0.00002   0.00005  -0.00001   0.00001   0.00007
5 O 3dz^2       -0.00002  -0.00003  -0.00001  -0.00002   0.00001
5 O 3dxz         0.00001   0.00000   0.00001   0.00006   0.00002
5 O 3dx2-y2      0.00000   0.00004   0.00001  -0.00004   0.00002
5 O 4dxy         0.00002  -0.00005   0.00016  -0.00009  -0.00051
5 O 4dyz         0.00016   0.00026   0.00005   0.00011   0.00053
5 O 4dz^2        0.00004   0.00004   0.00008  -0.00034  -0.00031
5 O 4dxz         0.00002   0.00007   0.00006  -0.00004   0.00017
5 O 4dx2-y2      0.00029   0.00025  -0.00015   0.00027   0.00051
5 O 4f-3        -0.00002  -0.00002  -0.00000  -0.00002  -0.00008
5 O 4f-2         0.00002   0.00006   0.00001  -0.00000   0.00008
5 O 4f-1        -0.00000  -0.00002  -0.00000   0.00001  -0.00001
5 O 4f+0         0.00001   0.00001  -0.00003   0.00004   0.00004
5 O 4f+1        -0.00001  -0.00004   0.00001  -0.00003  -0.00008
5 O 4f+2         0.00001   0.00002   0.00006  -0.00003  -0.00005
5 O 4f+3         0.00002   0.00003  -0.00004   0.00004   0.00012
6 C 1s           0.00007   0.00039  -0.00017  -0.00017   0.00047
6 C 2s           0.00002   0.00575   0.00200  -0.00004   0.00904
6 C 3s          -0.00351   0.00223   0.00539  -0.00081   0.00638
6 C 2px          0.00048   0.00710   0.00179   0.00485   0.01606
6 C 2py          0.00047  -0.00725  -0.00390   0.00239  -0.01138
6 C 2pz          0.00019   0.00104  -0.00108   0.00406   0.00230
6 C 3px         -0.00107   0.00081  -0.00275   0.00429   0.00537
6 C 3py          0.00246  -0.00233  -0.00245  -0.00176  -0.00993
6 C 3pz         -0.00075   0.00052   0.00054   0.00333   0.00526
6 C 3dxy         0.00033  -0.00084  -0.00113   0.00115  -0.00030
6 C 3dyz        -0.00013   0.00066  -0.00048   0.00052   0.00259
6 C 3dz^2        0.00020  -0.00035   0.00012  -0.00068  -0.00160
6 C 3dxz         0.00016  -0.00016   0.00066  -0.00082  -0.00253
6 C 3dx2-y2     -0.00022   0.00035  -0.00168   0.00284   0.00512
7 H 1s           0.00030  -0.00232   0.00241  -0.00605  -0.01379
7 H 2s          -0.00124  -0.00113   0.00364  -0.00461  -0.00941
7 H 2px          0.00011   0.00019   0.00015   0.00001   0.00029
7 H 2py          0.00003  -0.00015  -0.00005   0.00022  -0.00009
7 H 2pz         -0.00005  -0.00001  -0.00005   0.00002  -0.00005
8 O 1s          -0.00007  -0.00039  -0.00009  -0.00012  -0.00001
8 O 2s          -0.00875  -0.00688  -0.01605   0.00284   0.02301
8 O 3s          -0.00264  -0.00179  -0.00470   0.00084   0.00669
8 O 4s          -0.02112  -0.00985  -0.02637   0.00406   0.03653
8 O 2px          0.00510   0.00758   0.00917   0.00499  -0.01008
8 O 2py          0.00901  -0.01151   0.00404   0.00065   0.01693
8 O 2pz         -0.00539   0.00709   0.00752  -0.01020  -0.01267
8 O 3px          0.00599   0.00999   0.01151   0.00583  -0.01357
8 O 3py          0.01031  -0.01493   0.00412   0.00108   0.02271
8 O 3pz         -0.00601   0.00965   0.00994  -0.01325  -0.01722
8 O 4px          0.00478   0.00930   0.01082   0.00511  -0.01401
8 O 4py          0.01315  -0.01632   0.00326  -0.00018   0.02402
8 O 4pz         -0.01105   0.00755   0.01054  -0.01470  -0.01772
8 O 3dxy         0.00032  -0.00062   0.00025  -0.00014   0.00050
8 O 3dyz         0.00043  -0.00029   0.00009   0.00001   0.00035
8 O 3dz^2       -0.00048  -0.00014  -0.00015  -0.00064   0.00005
8 O 3dxz         0.00046   0.00012   0.00071  -0.00049  -0.00072
8 O 3dx2-y2      0.00097   0.00026   0.00074   0.00030  -0.00037
8 O 4dxy         0.00040  -0.00203   0.00071  -0.00039   0.00244
8 O 4dyz         0.00192  -0.00111   0.00037   0.00011   0.00079
8 O 4dz^2       -0.00095  -0.00041  -0.00008  -0.00266  -0.00020
8 O 4dxz         0.00101   0.00017   0.00184  -0.00214  -0.00248
8 O 4dx2-y2      0.00253   0.00095   0.00197   0.00088  -0.00140
8 O 4f-3         0.00054   0.00011   0.00028   0.00018   0.00005
8 O 4f-2         0.00009   0.00021   0.00029  -0.00021  -0.00043
8 O 4f-1        -0.00029   0.00008   0.00009  -0.00036  -0.00024
8 O 4f+0        -0.00001   0.00010  -0.00003   0.00021  -0.00013
8 O 4f+1        -0.00026   0.00001  -0.00015   0.00006   0.00002
8 O 4f+2        -0.00053   0.00016  -0.00005  -0.00013  -0.00022
8 O 4f+3        -0.00015   0.00035  -0.00004   0.00008  -0.00055
9 O 1s          -0.00012   0.00020  -0.00012  -0.00014   0.00012
9 O 2s           0.00061   0.00100   0.00076   0.00108  -0.00217
9 O 3s           0.00023   0.00022   0.00024   0.00033  -0.00068
9 O 4s           0.00384   0.00015   0.00146   0.00371  -0.00087
9 O 2px         -0.00014  -0.00045   0.00214   0.00196  -0.00284
9 O 2py         -0.00109   0.00109  -0.00169  -0.00124  -0.00117
9 O 2pz         -0.00103  -0.00095   0.00063   0.00241  -0.00242
9 O 3px          0.00007  -0.00055   0.00245   0.00195  -0.00308
9 O 3py         -0.00145   0.00125  -0.00215  -0.00202  -0.00108
9 O 3pz         -0.00109  -0.00123   0.00068   0.00264  -0.00254
9 O 4px         -0.00024  -0.00050   0.00400   0.00372  -0.00367
9 O 4py         -0.00140   0.00191  -0.00193  -0.00073  -0.00265
9 O 4pz         -0.00279  -0.00186   0.00115   0.00383  -0.00448
9 O 3dxy        -0.00000  -0.00003   0.00004   0.00004   0.00001
9 O 3dyz        -0.00001  -0.00003  -0.00002  -0.00000   0.00008
9 O 3dz^2       -0.00001  -0.00005  -0.00001   0.00000   0.00001
9 O 3dxz        -0.00002  -0.00004   0.00002  -0.00004   0.00002
9 O 3dx2-y2     -0.00001   0.00003  -0.00001  -0.00006   0.00001
9 O 4dxy        -0.00002  -0.00010  -0.00014  -0.00007   0.00052
9 O 4dyz        -0.00024  -0.00029   0.00008   0.00001   0.00032
9 O 4dz^2       -0.00003  -0.00005  -0.00005  -0.00032   0.00033
9 O 4dxz        -0.00008  -0.00015  -0.00007  -0.00022   0.00060
9 O 4dx2-y2      0.00022   0.00014   0.00017   0.00023  -0.00028
9 O 4f-3        -0.00002  -0.00002  -0.00001  -0.00002   0.00010
9 O 4f-2        -0.00000  -0.00003   0.00000   0.00002   0.00004
9 O 4f-1         0.00002   0.00001  -0.00001   0.00002  -0.00003
9 O 4f+0         0.00000   0.00002  -0.00001  -0.00000  -0.00004
9 O 4f+1        -0.00001  -0.00004  -0.00004  -0.00004   0.00011
9 O 4f+2        -0.00003  -0.00005   0.00003  -0.00001   0.00006
9 O 4f+3         0.00001   0.00000   0.00005   0.00005  -0.00010
10 O 1s          0.00022   0.00008  -0.00003  -0.00008   0.00004
10 O 2s         -0.00050  -0.00831  -0.00055  -0.00852   0.02770
10 O 3s         -0.00027  -0.00239  -0.00010  -0.00231   0.00775
10 O 4s         -0.00311  -0.01303  -0.00033  -0.01274   0.04083
10 O 2px         0.00045  -0.00703   0.00922   0.00873  -0.00335
10 O 2py         0.00057   0.00214   0.00685   0.01479  -0.02210
10 O 2pz         0.00007   0.00474   0.00427   0.00919  -0.02799
10 O 3px         0.00065  -0.00849   0.01167   0.01127  -0.00535
10 O 3py         0.00043   0.00270   0.00905   0.01917  -0.02821
10 O 3pz         0.00005   0.00621   0.00570   0.01235  -0.03618
10 O 4px        -0.00029  -0.00667   0.01042   0.01182  -0.01037
10 O 4py         0.00355   0.00256   0.00779   0.01794  -0.02619
10 O 4pz         0.00264   0.00550   0.00463   0.01012  -0.03429
10 O 3dxy        0.00001  -0.00032   0.00019  -0.00005   0.00053
10 O 3dyz        0.00003   0.00020   0.00004   0.00032  -0.00080
10 O 3dz^2      -0.00000   0.00002   0.00005  -0.00005  -0.00021
10 O 3dxz        0.00006  -0.00042   0.00024   0.00014   0.00057
10 O 3dx2-y2    -0.00004   0.00010  -0.00023  -0.00037   0.00022
10 O 4dxy       -0.00001  -0.00061   0.00035  -0.00054   0.00104
10 O 4dyz        0.00005  -0.00000   0.00051   0.00089  -0.00131
10 O 4dz^2      -0.00010  -0.00008   0.00016   0.00005  -0.00050
10 O 4dxz       -0.00013  -0.00119   0.00047   0.00025   0.00148
10 O 4dx2-y2     0.00002   0.00028  -0.00102  -0.00139   0.00101
10 O 4f-3       -0.00002   0.00018  -0.00008   0.00002  -0.00017
10 O 4f-2       -0.00001  -0.00001  -0.00015  -0.00021   0.00045
10 O 4f-1        0.00003  -0.00007  -0.00000  -0.00009   0.00021
10 O 4f+0        0.00001  -0.00015   0.00009   0.00003   0.00015
10 O 4f+1       -0.00000   0.00009  -0.00011  -0.00012   0.00025
10 O 4f+2       -0.00004   0.00019  -0.00007  -0.00002  -0.00024
10 O 4f+3        0.00003  -0.00005   0.00020   0.00025  -0.00024
11 C 1s          0.00007   0.00039   0.00017  -0.00017  -0.00047
11 C 2s          0.00002   0.00575  -0.00200  -0.00004  -0.00904
11 C 3s         -0.00351   0.00223  -0.00539  -0.00081  -0.00638
11 C 2px         0.00043   0.00626  -0.00187   0.00365  -0.01437
11 C 2py         0.00053  -0.00641   0.00397   0.00359   0.00969
11 C 2pz        -0.00018  -0.00487   0.00056  -0.00441   0.00961
11 C 3px        -0.00072   0.00055   0.00288   0.00315  -0.00334
11 C 3py         0.00212  -0.00206   0.00232  -0.00062   0.00790
11 C 3pz         0.00165  -0.00134   0.00041  -0.00472   0.00902
11 C 3dxy        0.00036  -0.00094   0.00077   0.00081   0.00136
11 C 3dyz       -0.00003  -0.00025  -0.00100  -0.00110   0.00246
11 C 3dz^2       0.00024  -0.00052  -0.00073  -0.00126   0.00344
11 C 3dxz        0.00011  -0.00041   0.00026  -0.00017   0.00040
11 C 3dx2-y2    -0.00021   0.00019   0.00160   0.00270  -0.00471
12 H 1s          0.00030  -0.00232  -0.00241  -0.00605   0.01379
12 H 2s         -0.00124  -0.00113  -0.00364  -0.00461   0.00941
12 H 2px         0.00012   0.00018  -0.00015   0.00001  -0.00029
12 H 2py         0.00002  -0.00014   0.00006   0.00022   0.00009
12 H 2pz         0.00002  -0.00009   0.00001   0.00003   0.00006
13 O 1s          0.00030   0.00011  -0.00020   0.00017   0.00007
13 O 2s          0.00691  -0.00869  -0.00277   0.00028   0.02333
13 O 3s          0.00194  -0.00253  -0.00066  -0.00002   0.00675
13 O 4s          0.01120  -0.01775  -0.00191  -0.00192   0.04041
13 O 2px        -0.00394  -0.01059  -0.00952   0.00200   0.01894
13 O 2py        -0.00850  -0.00127  -0.00709   0.00463  -0.00348
13 O 2pz         0.00401  -0.00424  -0.00563   0.01301   0.01340
13 O 3px        -0.00435  -0.01390  -0.01235   0.00266   0.02446
13 O 3py        -0.00967  -0.00162  -0.00861   0.00576  -0.00335
13 O 3pz         0.00493  -0.00583  -0.00722   0.01627   0.01769
13 O 4px        -0.00917  -0.01524  -0.01108   0.00393   0.02680
13 O 4py        -0.01390  -0.00373  -0.01055   0.00336  -0.00300
13 O 4pz         0.00627  -0.00677  -0.00700   0.01827   0.02021
13 O 3dxy        0.00052  -0.00025   0.00026  -0.00039   0.00075
13 O 3dyz        0.00078  -0.00004   0.00010   0.00018   0.00038
13 O 3dz^2      -0.00016  -0.00011   0.00009  -0.00050   0.00028
13 O 3dxz       -0.00029   0.00027   0.00016  -0.00041  -0.00064
13 O 3dx2-y2     0.00070   0.00044   0.00041  -0.00003  -0.00037
13 O 4dxy        0.00117  -0.00067   0.00085  -0.00085   0.00174
13 O 4dyz        0.00252  -0.00008   0.00010   0.00053   0.00103
13 O 4dz^2      -0.00131  -0.00033   0.00005  -0.00156   0.00074
13 O 4dxz       -0.00095   0.00036   0.00051  -0.00162  -0.00124
13 O 4dx2-y2     0.00280   0.00144   0.00150   0.00027  -0.00097
13 O 4f-3        0.00032   0.00011   0.00032  -0.00007  -0.00012
13 O 4f-2        0.00020   0.00000   0.00016  -0.00027  -0.00009
13 O 4f-1        0.00024  -0.00002   0.00005  -0.00014   0.00008
13 O 4f+0       -0.00016  -0.00006  -0.00003  -0.00020   0.00007
13 O 4f+1       -0.00020   0.00008   0.00004  -0.00022  -0.00022
13 O 4f+2       -0.00002   0.00018   0.00009  -0.00012  -0.00035
13 O 4f+3       -0.00003   0.00018  -0.00002   0.00014  -0.00031
14 O 1s         -0.00011  -0.00013  -0.00013   0.00035   0.00025
14 O 2s          0.00160   0.00137   0.00069   0.00140  -0.00119
14 O 3s          0.00057   0.00046   0.00028   0.00030  -0.00044
14 O 4s          0.00477   0.00345   0.00122  -0.00371  -0.00420
14 O 2px         0.00401   0.00080  -0.00056   0.00590   0.00104
14 O 2py         0.00124  -0.00078  -0.00137   0.00129   0.00145
14 O 2pz        -0.00316  -0.00143  -0.00208   0.00117   0.00153
14 O 3px         0.00471   0.00120  -0.00078   0.00700   0.00090
14 O 3py         0.00139  -0.00078  -0.00133   0.00124   0.00160
14 O 3pz        -0.00406  -0.00162  -0.00219   0.00129   0.00165
14 O 4px         0.00652   0.00047  -0.00107   0.00729   0.00254
14 O 4py         0.00142  -0.00214  -0.00316   0.00313   0.00275
14 O 4pz        -0.00583  -0.00284  -0.00496   0.00096   0.00307
14 O 3dxy        0.00009   0.00003   0.00004   0.00002  -0.00000
14 O 3dyz       -0.00008  -0.00004  -0.00003   0.00000   0.00003
14 O 3dz^2      -0.00008  -0.00001   0.00001  -0.00008  -0.00001
14 O 3dxz        0.00003  -0.00002   0.00002  -0.00002   0.00006
14 O 3dx2-y2     0.00003  -0.00000   0.00004  -0.00008   0.00000
14 O 4dxy        0.00027  -0.00020   0.00007  -0.00007   0.00033
14 O 4dyz       -0.00006  -0.00009   0.00003  -0.00007   0.00013
14 O 4dz^2      -0.00014  -0.00022  -0.00010   0.00000   0.00022
14 O 4dxz       -0.00009  -0.00019  -0.00010  -0.00036   0.00033
14 O 4dx2-y2    -0.00023  -0.00012  -0.00010  -0.00028   0.00033
14 O 4f-3        0.00002   0.00003   0.00003   0.00004  -0.00008
14 O 4f-2       -0.00004   0.00002  -0.00003   0.00010  -0.00006
14 O 4f-1        0.00001   0.00003   0.00001   0.00006  -0.00005
14 O 4f+0        0.00001   0.00001   0.00004  -0.00001  -0.00001
14 O 4f+1       -0.00003  -0.00000  -0.00002   0.00002  -0.00001
14 O 4f+2       -0.00002   0.00002   0.00003  -0.00005  -0.00004
14 O 4f+3        0.00002  -0.00001   0.00002  -0.00004   0.00005
15 C 1s         -0.00026   0.00023  -0.00021   0.00039  -0.00062
15 C 2s         -0.00603   0.00231  -0.00298   0.00468  -0.00826
15 C 3s         -0.00884   0.00053  -0.00301   0.00800  -0.00368
15 C 2px        -0.01472  -0.00080  -0.00505  -0.00033  -0.00699
15 C 2py         0.00084  -0.00602   0.00053  -0.00592   0.01311
15 C 2pz         0.01039   0.00258   0.00142   0.00835   0.00013
15 C 3px        -0.01141  -0.00021  -0.00063  -0.00304  -0.00382
15 C 3py        -0.00222  -0.00468  -0.00477  -0.00205   0.00706
15 C 3pz         0.00810   0.00173   0.00162   0.00553  -0.00033
15 C 3dxy        0.00159   0.00069   0.00089   0.00033  -0.00024
15 C 3dyz       -0.00142   0.00069   0.00093  -0.00223  -0.00193
15 C 3dz^2      -0.00006  -0.00046  -0.00039   0.00009   0.00082
15 C 3dxz        0.00128  -0.00060  -0.00045   0.00095   0.00193
15 C 3dx2-y2    -0.00072  -0.00208  -0.00199   0.00060   0.00353
16 H 1s          0.00137  -0.00405  -0.00348   0.00348   0.00915
16 H 2s          0.00134  -0.00434  -0.00375   0.00452   0.01119
16 H 2px        -0.00048   0.00005  -0.00012   0.00009  -0.00031
16 H 2py        -0.00002  -0.00018   0.00011  -0.00010   0.00038
16 H 2pz         0.00014   0.00010   0.00001   0.00020  -0.00007
17 Fe 1s         0.00005  -0.00004  -0.00000   0.00072  -0.00000
17 Fe 2s         0.00020  -0.00010  -0.00000   0.00214  -0.00000
17 Fe 3s        -0.03037   0.00019  -0.00000   0.00989  -0.00000
17 Fe 4s        -0.02063  -0.03638   0.00000   0.03993   0.00000
17 Fe 5s        -0.01000  -0.00562   0.00000  -0.00390   0.00000
17 Fe 6s         0.00436   0.00095   0.00000   0.00429  -0.00000
17 Fe 7s        -0.03708  -0.01026  -0.00000  -0.02408   0.00000
17 Fe 2px       -0.00096  -0.00021   0.00002   0.00002  -0.00000
17 Fe 2py        0.00022  -0.00052  -0.00002   0.00049   0.00000
17 Fe 2pz        0.00017  -0.00004   0.00012   0.00007  -0.00002
17 Fe 3px       -0.02684  -0.00579   0.00030   0.00062  -0.00008
17 Fe 3py       -0.00131  -0.01527  -0.00030   0.00822   0.00008
17 Fe 3pz        0.00362  -0.00135   0.00211   0.00108  -0.00059
17 Fe 4px       -0.09667  -0.02791   0.00047   0.00523   0.00047
17 Fe 4py        0.06825  -0.00216  -0.00047   0.07487  -0.00048
17 Fe 4pz        0.02339   0.00365   0.00330   0.00988   0.00336
17 Fe 5px        0.06152   0.03302  -0.00061  -0.00740  -0.00001
17 Fe 5py       -0.06246   0.04729   0.00061  -0.07437   0.00001
17 Fe 5pz       -0.01758   0.00202  -0.00429  -0.00950  -0.00006
17 Fe 6px       -0.00014   0.00015   0.00005  -0.00066   0.00004
17 Fe 6py        0.00248   0.00328  -0.00005   0.00107  -0.00004
17 Fe 6pz        0.00037   0.00044   0.00033   0.00024   0.00025
17 Fe 7px       -0.03372  -0.00192  -0.00116   0.00051  -0.00069
17 Fe 7py       -0.00830  -0.01073   0.00116  -0.00860   0.00069
17 Fe 7pz        0.00360  -0.00125  -0.00819  -0.00129  -0.00488
17 Fe 3dxy      -0.68853  -0.17470  -0.09522   0.42955   0.08605
17 Fe 3dyz       0.07209  -0.15225  -0.64795  -0.13064  -0.02719
17 Fe 3dz^2      0.42632   0.43197  -0.16492   0.39629   0.14905
17 Fe 3dxz       0.08682   0.01722  -0.00352   0.19914  -0.60960
17 Fe 3dx2-y2   -0.56026   0.47609  -0.09239  -0.24155  -0.09031
17 Fe 4dxy      -0.01023   0.00589   0.00472  -0.01426  -0.00558
17 Fe 4dyz       0.00067   0.00646   0.02562   0.00479  -0.00553
17 Fe 4dz^2      0.00778  -0.01872   0.00818  -0.01441  -0.00966
17 Fe 4dxz       0.00163  -0.00138  -0.00635  -0.00680   0.03221
17 Fe 4dx2-y2   -0.00812  -0.01790   0.00273   0.00707   0.00378
17 Fe 5dxy      -0.00658   0.00060   0.00088  -0.00215  -0.00102
17 Fe 5dyz       0.00052   0.00122   0.00458   0.00086  -0.00144
17 Fe 5dz^2      0.00468  -0.00344   0.00152  -0.00254  -0.00176
17 Fe 5dxz       0.00097  -0.00037  -0.00134  -0.00108   0.00546
17 Fe 5dx2-y2   -0.00527  -0.00299   0.00046   0.00077   0.00057
17 Fe 6dxy      -0.05450  -0.00799  -0.00093   0.01484   0.00007
17 Fe 6dyz       0.00719  -0.00487  -0.01653  -0.00193  -0.00654
17 Fe 6dz^2      0.02579   0.01574  -0.00161   0.00709   0.00013
17 Fe 6dxz       0.00428   0.00082  -0.01023   0.00608  -0.00705
17 Fe 6dx2-y2   -0.04043   0.01427  -0.00380  -0.01462  -0.00193
17 Fe 4f-3       0.00024  -0.00003   0.00002   0.00010   0.00003
17 Fe 4f-2       0.00002  -0.00002  -0.00002  -0.00006   0.00020
17 Fe 4f-1      -0.00010  -0.00025   0.00006  -0.00012  -0.00005
17 Fe 4f+0       0.00001  -0.00006  -0.00006  -0.00004  -0.00000
17 Fe 4f+1      -0.00012  -0.00008   0.00001  -0.00000   0.00005
17 Fe 4f+2       0.00006  -0.00006  -0.00015  -0.00002   0.00001
17 Fe 4f+3      -0.00035  -0.00010  -0.00003   0.00008   0.00004
17 Fe 5f-3       0.00068  -0.00229   0.00036   0.00116   0.00016
17 Fe 5f-2       0.00037   0.00028   0.00066  -0.00032   0.00009
17 Fe 5f-1      -0.00024  -0.00203   0.00055  -0.00006   0.00006
17 Fe 5f+0       0.00003  -0.00051  -0.00103  -0.00011   0.00024
17 Fe 5f+1      -0.00028  -0.00061   0.00010   0.00018   0.00029
17 Fe 5f+2       0.00048  -0.00080  -0.00140   0.00019  -0.00077
17 Fe 5f+3      -0.00267  -0.00124  -0.00014   0.00029  -0.00012
17 Fe 5g-4       0.00136  -0.00007   0.00019   0.00013   0.00008
17 Fe 5g-3      -0.00028   0.00010   0.00082  -0.00003   0.00108
17 Fe 5g-2      -0.00079  -0.00061  -0.00026   0.00028  -0.00013
17 Fe 5g-1       0.00013  -0.00019  -0.00069  -0.00009  -0.00055
17 Fe 5g+0       0.00072   0.00061  -0.00009   0.00038   0.00048
17 Fe 5g+1       0.00031   0.00004  -0.00056   0.00051  -0.00152
17 Fe 5g+2      -0.00072   0.00023  -0.00013  -0.00063  -0.00054
17 Fe 5g+3      -0.00014   0.00020  -0.00012  -0.00035   0.00057
17 Fe 5g+4      -0.00004  -0.00148   0.00015   0.00134   0.00034
18 O 1s         -0.00007  -0.00039   0.00009  -0.00012   0.00001
18 O 2s         -0.00875  -0.00688   0.01605   0.00284  -0.02301
18 O 3s         -0.00264  -0.00179   0.00470   0.00084  -0.00669
18 O 4s         -0.02112  -0.00985   0.02637   0.00406  -0.03653
18 O 2px         0.00672   0.00491  -0.00693   0.00760   0.00558
18 O 2py         0.00739  -0.00884  -0.00629  -0.00196  -0.01243
18 O 2pz         0.00604  -0.01175   0.00834   0.00823  -0.01905
18 O 3px         0.00779   0.00639  -0.00851   0.00926   0.00747
18 O 3py         0.00850  -0.01134  -0.00712  -0.00235  -0.01661
18 O 3pz         0.00672  -0.01570   0.01119   0.01093  -0.02577
18 O 4px         0.00811   0.00625  -0.00766   0.00891   0.00771
18 O 4py         0.00981  -0.01327  -0.00643  -0.00398  -0.01772
18 O 4pz         0.01248  -0.01395   0.01179   0.01213  -0.02671
18 O 3dxy        0.00036  -0.00045  -0.00041  -0.00017  -0.00018
18 O 3dyz       -0.00053   0.00037   0.00035   0.00028   0.00025
18 O 3dz^2      -0.00040   0.00015  -0.00012  -0.00070   0.00049
18 O 3dxz       -0.00082  -0.00035   0.00079   0.00001  -0.00079
18 O 3dx2-y2     0.00065   0.00028  -0.00046   0.00041   0.00024
18 O 4dxy        0.00027  -0.00150  -0.00104  -0.00058  -0.00146
18 O 4dyz       -0.00205   0.00132   0.00118   0.00116   0.00051
18 O 4dz^2      -0.00118   0.00050  -0.00049  -0.00300   0.00190
18 O 4dxz       -0.00203  -0.00097   0.00193   0.00023  -0.00284
18 O 4dx2-y2     0.00154   0.00113  -0.00121   0.00137   0.00083
18 O 4f-3        0.00032   0.00008  -0.00017   0.00019  -0.00010
18 O 4f-2       -0.00020  -0.00024   0.00021  -0.00002  -0.00034
18 O 4f-1       -0.00043   0.00029  -0.00008  -0.00021   0.00052
18 O 4f+0        0.00003   0.00005  -0.00023  -0.00040   0.00020
18 O 4f+1       -0.00053  -0.00005   0.00021  -0.00016  -0.00009
18 O 4f+2        0.00036  -0.00015  -0.00011   0.00000  -0.00025
18 O 4f+3       -0.00004   0.00021   0.00010   0.00013   0.00033
19 Fe 1s         0.00009   0.00005   0.00000  -0.00091   0.00000
19 Fe 2s         0.00027   0.00015   0.00000  -0.00269   0.00000
19 Fe 3s         0.00163  -0.00062   0.00000  -0.01343   0.00000
19 Fe 4s         0.01786   0.00844  -0.00000  -0.04745   0.00000
19 Fe 5s         0.00225   0.00308  -0.00000   0.00013  -0.00000
19 Fe 6s         0.00105   0.00122  -0.00000  -0.00203   0.00000
19 Fe 7s         0.03509   0.00061  -0.00000   0.01244   0.00000
19 Fe 2px        0.00002   0.00035  -0.00002   0.00134   0.00001
19 Fe 2py        0.00008   0.00007   0.00002   0.00026  -0.00001
19 Fe 2pz        0.00001  -0.00004  -0.00012  -0.00015   0.00010
19 Fe 3px       -0.00013   0.01062  -0.00003   0.03271   0.00052
19 Fe 3py       -0.00001   0.00034   0.00003   0.00657  -0.00052
19 Fe 3pz        0.00002  -0.00146  -0.00020  -0.00371   0.00369
19 Fe 4px       -0.03642   0.02376  -0.00082   0.12178   0.00053
19 Fe 4py        0.02623  -0.01050   0.00082   0.04067  -0.00053
19 Fe 4pz        0.00889  -0.00486  -0.00581  -0.01150   0.00375
19 Fe 5px        0.02916  -0.03790   0.00026  -0.14984  -0.00185
19 Fe 5py       -0.01270  -0.00018  -0.00025  -0.04052   0.00185
19 Fe 5pz       -0.00594   0.00535   0.00180   0.01550  -0.01306
19 Fe 6px       -0.00165  -0.00252  -0.00020  -0.00536  -0.00015
19 Fe 6py       -0.00055   0.00137   0.00020  -0.00125   0.00015
19 Fe 6pz        0.00016   0.00055  -0.00139   0.00058  -0.00105
19 Fe 7px       -0.01141   0.00244   0.00084   0.00165   0.00055
19 Fe 7py       -0.01560  -0.00568  -0.00084  -0.00036  -0.00055
19 Fe 7pz       -0.00059  -0.00115   0.00594  -0.00029   0.00388
19 Fe 3dxy      -0.00250   0.51697   0.09285  -0.40879  -0.10078
19 Fe 3dyz      -0.00338  -0.04940  -0.03836  -0.01463  -0.69614
19 Fe 3dz^2     -0.00833   0.12627   0.16082   0.45973  -0.17453
19 Fe 3dxz      -0.00838   0.16800  -0.66674   0.09987  -0.01410
19 Fe 3dx2-y2    0.04148  -0.41814  -0.09999  -0.30052  -0.10072
19 Fe 4dxy      -0.00277  -0.05303  -0.01131   0.04726   0.01480
19 Fe 4dyz      -0.00020   0.00524  -0.00150   0.00133   0.09549
19 Fe 4dz^2      0.00247  -0.01578  -0.01959  -0.05438   0.02564
19 Fe 4dxz       0.00025  -0.01851   0.07506  -0.01254  -0.00469
19 Fe 4dx2-y2   -0.00017   0.04681   0.01043   0.03953   0.01287
19 Fe 5dxy      -0.00094  -0.01086  -0.00223   0.00917   0.00295
19 Fe 5dyz      -0.00009   0.00107  -0.00025   0.00033   0.01900
19 Fe 5dz^2      0.00096  -0.00303  -0.00387  -0.01058   0.00511
19 Fe 5dxz       0.00012  -0.00369   0.01486  -0.00238  -0.00098
19 Fe 5dx2-y2   -0.00010   0.00926   0.00207   0.00725   0.00256
19 Fe 6dxy      -0.00200   0.00696   0.00121  -0.00621   0.00206
19 Fe 6dyz      -0.00064  -0.00110   0.00100  -0.00097   0.00930
19 Fe 6dz^2      0.00214   0.00321   0.00209   0.01008   0.00357
19 Fe 6dxz      -0.00014   0.00260  -0.00717   0.00235  -0.00464
19 Fe 6dx2-y2    0.00275  -0.00530  -0.00088  -0.00488   0.00066
19 Fe 4f-3      -0.00004   0.00016   0.00004  -0.00031  -0.00010
19 Fe 4f-2      -0.00000  -0.00001  -0.00012   0.00002  -0.00042
19 Fe 4f-1      -0.00001  -0.00009   0.00003   0.00013   0.00004
19 Fe 4f+0      -0.00003  -0.00008   0.00020  -0.00010   0.00009
19 Fe 4f+1       0.00006   0.00013   0.00012   0.00040  -0.00010
19 Fe 4f+2       0.00001   0.00011  -0.00033   0.00010   0.00012
19 Fe 4f+3      -0.00006  -0.00038  -0.00008  -0.00016  -0.00005
19 Fe 5f-3      -0.00021   0.00139   0.00019  -0.00398  -0.00022
19 Fe 5f-2       0.00016  -0.00005  -0.00223   0.00062  -0.00125
19 Fe 5f-1      -0.00068  -0.00045   0.00035   0.00166   0.00010
19 Fe 5f+0      -0.00022  -0.00075   0.00245  -0.00090   0.00058
19 Fe 5f+1      -0.00006   0.00156   0.00111   0.00418  -0.00009
19 Fe 5f+2       0.00007   0.00123  -0.00313   0.00118  -0.00001
19 Fe 5f+3      -0.00157  -0.00395  -0.00095  -0.00295  -0.00022
19 Fe 5g-4       0.00010  -0.00011  -0.00001  -0.00000  -0.00013
19 Fe 5g-3      -0.00002   0.00001  -0.00014  -0.00001  -0.00021
19 Fe 5g-2       0.00001  -0.00007   0.00006   0.00019  -0.00002
19 Fe 5g-1       0.00002  -0.00003   0.00001  -0.00014   0.00017
19 Fe 5g+0      -0.00001   0.00007   0.00000   0.00010   0.00006
19 Fe 5g+1       0.00002  -0.00000   0.00002   0.00011   0.00005
19 Fe 5g+2      -0.00006   0.00006  -0.00001   0.00004  -0.00012
19 Fe 5g+3      -0.00001   0.00000  -0.00007   0.00001   0.00042
19 Fe 5g+4       0.00008  -0.00012  -0.00004   0.00028   0.00004
20 O 1s         -0.00008  -0.00015   0.00003  -0.00001  -0.00033
20 O 2s          0.00085   0.00626  -0.01617  -0.01169   0.02561
20 O 3s          0.00023   0.00189  -0.00462  -0.00319   0.00727
20 O 4s          0.00098   0.01161  -0.02469  -0.01884   0.04133
20 O 2px        -0.00331   0.01094  -0.00581   0.00906  -0.01740
20 O 2py         0.00071  -0.00092  -0.00882  -0.00653   0.01129
20 O 2pz         0.00477  -0.00125  -0.01167  -0.01556   0.03173
20 O 3px        -0.00430   0.01368  -0.00636   0.01230  -0.02290
20 O 3py         0.00130  -0.00118  -0.01064  -0.00872   0.01472
20 O 3pz         0.00624  -0.00117  -0.01529  -0.02056   0.04196
20 O 4px        -0.00377   0.01253  -0.00654   0.01182  -0.02612
20 O 4py         0.00259  -0.00323  -0.01155  -0.00399   0.00772
20 O 4pz         0.00927  -0.00295  -0.01700  -0.01868   0.03711
20 O 3dxy        0.00016  -0.00046   0.00035  -0.00014  -0.00003
20 O 3dyz        0.00000  -0.00024   0.00066   0.00039  -0.00083
20 O 3dz^2      -0.00023  -0.00005   0.00004  -0.00002  -0.00032
20 O 3dxz        0.00006  -0.00045   0.00030  -0.00015  -0.00000
20 O 3dx2-y2    -0.00007  -0.00003  -0.00040  -0.00040   0.00037
20 O 4dxy       -0.00012  -0.00094   0.00088  -0.00092   0.00113
20 O 4dyz       -0.00033  -0.00042   0.00123   0.00102  -0.00229
20 O 4dz^2      -0.00006  -0.00016   0.00000   0.00001  -0.00110
20 O 4dxz       -0.00006  -0.00119   0.00097  -0.00018  -0.00060
20 O 4dx2-y2     0.00016  -0.00058  -0.00074  -0.00128   0.00114
20 O 4f-3       -0.00000   0.00021  -0.00006   0.00023  -0.00033
20 O 4f-2       -0.00001   0.00006  -0.00024  -0.00020   0.00041
20 O 4f-1        0.00018  -0.00010   0.00014   0.00015  -0.00003
20 O 4f+0        0.00001  -0.00016   0.00023   0.00007  -0.00026
20 O 4f+1        0.00011  -0.00016  -0.00005  -0.00015   0.00048
20 O 4f+2       -0.00013   0.00019  -0.00001   0.00009  -0.00028
20 O 4f+3        0.00005  -0.00006   0.00019   0.00011  -0.00000
21 O 1s         -0.00008  -0.00015  -0.00003  -0.00001   0.00033
21 O 2s          0.00085   0.00626   0.01617  -0.01169  -0.02561
21 O 3s          0.00023   0.00189   0.00462  -0.00319  -0.00727
21 O 4s          0.00098   0.01160   0.02469  -0.01884  -0.04133
21 O 2px        -0.00446   0.01083   0.00274   0.01270   0.02494
21 O 2py         0.00186  -0.00080   0.01189  -0.01016  -0.01884
21 O 2pz        -0.00331  -0.00208  -0.00995   0.01010   0.02146
[...]
00u0uu0u0u :  4.31e-02   00u0u00uuu :  3.45e-02   000uu0uuu0 :  5.51e-02   
State 6/15               State 7/15               State 8/15               
000u0uuu0u :  8.02e-01   000u0uu0uu : -6.25e-01   00u00uu0uu : -6.87e-01   
0u000uuu0u : -4.93e-01   000u0uuuu0 :  4.41e-01   00u000uuuu : -6.09e-01   
00u00uu0uu : -1.55e-01   000u00uuuu : -3.72e-01   00u00uuuu0 : -2.04e-01   
00u000uuuu : -1.23e-01   00u00uuu0u :  3.04e-01   000u0uuu0u : -1.90e-01   
00u00uuuu0 :  1.20e-01   0u000uu0uu :  2.86e-01   u0000uu0uu :  1.32e-01   
000u0u0uuu :  1.16e-01   00u00u0uuu :  1.67e-01   000u0u0uuu : -1.11e-01   
000uuuuu00 :  1.14e-01   0u000uuuu0 : -1.36e-01   u00000uuuu :  1.07e-01   
00uu0u0u0u :  7.83e-02   0u0000uuuu :  9.92e-02   00u0uuu0u0 : -9.53e-02   
0u0u0uu00u :  7.73e-02   000uuuu0u0 : -8.72e-02   00u0u0uuu0 : -9.04e-02   
0u00uuuu00 : -7.11e-02   0000uuuuu0 : -7.43e-02   00uu00u0uu :  6.88e-02   
State 9/15               State 10/15              State 11/15              
00u00uuu0u :  5.85e-01   000u0uuuu0 :  5.40e-01   000u0u0uuu : -8.69e-01   
000u0uuuu0 :  4.76e-01   0u000uu0uu : -4.43e-01   0u000uuu0u : -3.02e-01   
000u0uu0uu :  3.97e-01   0u0000uuuu : -4.42e-01   00u00uu0uu :  2.51e-01   
000u00uuuu :  3.39e-01   000u00uuuu :  3.67e-01   0u000u0uuu :  1.65e-01   
00u00u0uuu : -2.69e-01   00u00uuu0u : -2.81e-01   00u000uuuu : -1.29e-01   
0u0000uuuu :  1.82e-01   000u0uu0uu : -2.46e-01   000uuu0uu0 : -1.25e-01   
u0000uuu0u : -9.42e-02   0u00u0uuu0 : -6.61e-02   0u0u0u00uu :  8.35e-02   
00u0uuuu00 :  8.25e-02   000uu0uuu0 :  5.95e-02   u0000uu0uu : -7.63e-02   
0000uuuuu0 :  6.09e-02   0u00uuu0u0 : -5.73e-02   u00u0u0u0u :  6.70e-02   
0uu00uu00u :  5.65e-02   00u00u0uuu :  5.39e-02   0000uu0uuu :  5.18e-02   
State 12/15              State 13/15              State 14/15              
0u000uuu0u :  7.31e-01   00u00uuu0u :  5.97e-01   000u0uu0uu : -5.14e-01   
000u0uuu0u :  4.37e-01   00u00u0uuu :  4.62e-01   00u00u0uuu : -4.69e-01   
000u0u0uuu : -3.51e-01   0u0000uuuu : -3.76e-01   000u00uuuu :  4.18e-01   
0u000u0uuu : -2.65e-01   0u000uu0uu : -3.40e-01   000u0uuuu0 : -3.42e-01   
00u00uuuu0 :  1.58e-01   000u0uuuu0 : -3.24e-01   0u000uuuu0 :  2.48e-01   
00u00uu0uu : -1.17e-01   u0000uuu0u : -1.26e-01   0u000uu0uu :  2.04e-01   
0u00uuuu00 :  1.04e-01   00u0uuuu00 :  8.56e-02   00u00uuu0u :  1.86e-01   
0u0u00uu0u : -7.51e-02   00u0uu0uu0 :  7.71e-02   0u0000uuuu : -1.67e-01   
0uu00u0u0u : -6.80e-02   0000uuuuu0 :  7.37e-02   u0000uuu0u : -1.17e-01   
000uuuuu00 :  6.04e-02   u0000u0uuu : -6.77e-02   000uu0uuu0 :  6.96e-02   
Leading 10 CSFs of 15 local primitive basis functions for fragment 1 in rootspace 17:
State 0/15               State 1/15               State 2/15               
0000uuuuuu :  9.57e-01   000u0uuuuu :  9.91e-01   00u00uuuuu :  9.59e-01   
00u00uuuuu :  2.49e-01   0u0u0uuu0u : -6.41e-02   0000uuuuuu : -2.50e-01   
000uuu0uuu : -6.19e-02   000uu0uuuu :  6.41e-02   00u0u0uuuu :  6.08e-02   
0u00uuuu0u : -6.18e-02   00uu0uu0uu : -6.18e-02   00uu0u0uuu :  6.01e-02   
00u0uuu0uu : -5.97e-02   u00u0uuuu0 : -5.63e-02   u0u00uuuu0 : -5.96e-02   
0u000uuuuu : -5.94e-02   u0uu0uu0u0 : -2.39e-02   0uu00uuu0u : -5.84e-02   
u000uuuuu0 : -5.41e-02   0u0uu0uu0u :  2.28e-02   0uuu0u0u0u :  2.19e-02   
u0u0uuu0u0 : -2.30e-02   00uuu0u0uu :  2.07e-02   0uu0u0uu0u :  2.18e-02   
0u0uuu0u0u : -2.18e-02   u00uu0uuu0 :  1.95e-02   00uuu00uuu : -2.12e-02   
00uuuu00uu : -1.96e-02   0uuu0uu00u : -1.94e-02   u0uu0u0uu0 :  1.91e-02   
State 3/15               State 4/15               State 5/15               
0u000uuuuu :  9.89e-01   u0000uuuuu :  9.90e-01   00u0uuuuu0 :  9.33e-01   
0u00u0uuuu :  6.59e-02   u0u00uu0uu :  6.86e-02   00uu0uuu0u :  2.97e-01   
0u0u0u0uuu :  6.54e-02   u00u0u0uuu :  6.37e-02   0u00uuuuu0 :  1.30e-01   
0uu00uu0uu :  6.05e-02   u000u0uuuu :  6.36e-02   0uu00uuuu0 :  6.29e-02   
0000uuuuuu :  5.77e-02   uu000uuu0u :  6.08e-02   00uuuu0uu0 : -6.13e-02   
uu000uuuu0 : -5.48e-02   uu00u0uu0u : -2.27e-02   0uu0uuuu00 :  6.05e-02   
uuu00uu0u0 :  2.39e-02   uu0u0u0u0u : -2.25e-02   00u0uu0uuu : -5.92e-02   
0u0uu00uuu : -2.13e-02   u00uu00uuu : -2.14e-02   00uu00uuuu :  5.83e-02   
0uu0u0u0uu : -2.07e-02   u0u0u0u0uu : -2.04e-02   000uuuuu0u : -3.92e-02   
0uuu0u00uu : -2.06e-02   u0uu0u00uu : -2.03e-02   u00u0uuuu0 :  3.21e-02   
State 6/15               State 7/15               State 8/15               
00uu0uuuu0 :  9.43e-01   000uuuuu0u :  9.06e-01   000uuuuuu0 : -7.36e-01   
00u0uuuu0u :  2.66e-01   00uu0uuu0u :  3.32e-01   00u0uuuu0u :  5.56e-01   
00u0u0uuuu :  9.92e-02   000uu0uuuu :  1.68e-01   00uu0u0uuu : -2.11e-01   
0u0u0uuuu0 : -9.56e-02   0u0u0uuu0u :  1.11e-01   0u00uuuu0u :  1.45e-01   
0uu00uuu0u :  7.42e-02   00u0uuuuu0 : -7.20e-02   0u0u0uuuu0 : -1.32e-01   
00uuu0uuu0 :  6.26e-02   00uu00uuuu :  6.99e-02   0uu00uuu0u : -1.19e-01   
0uuu0uuu00 :  6.10e-02   00uuuuu00u :  6.23e-02   00uu0uuuu0 : -1.09e-01   
000uuuuuu0 :  6.08e-02   00uu0uu0uu :  6.04e-02   u0u00uuuu0 : -9.48e-02   
000uuu0uuu :  3.20e-02   u00uuuuu00 : -5.52e-02   00u0uuu0uu : -8.30e-02   
u000uuuuu0 : -2.71e-02   u0u00uuu0u :  4.69e-02   000uuu0uuu : -7.28e-02   
State 9/15               State 10/15              State 11/15              
00uu0uuu0u :  7.22e-01   00u0uuuu0u : -5.85e-01   00u0uu0uuu : -6.21e-01   
000uu0uuuu : -3.75e-01   000uuuuuu0 : -5.15e-01   00uu00uuuu : -5.03e-01   
0u0u0uuu0u : -3.67e-01   000uuu0uuu :  3.44e-01   0uu00uuuu0 : -4.90e-01   
00u0uuuuu0 : -2.39e-01   0u00uuuu0u : -3.15e-01   00uu0uuu0u :  1.79e-01   
00uu00uuuu :  2.01e-01   00u0u0uuuu : -2.49e-01   0u00uuuuu0 : -1.52e-01   
000uuuuu0u : -1.92e-01   00uu0uuuu0 :  2.10e-01   0u00uu0uuu : -1.44e-01   
0u0u00uuuu : -1.33e-01   0u0u0uuuu0 : -1.39e-01   0u0u0uuu0u : -1.17e-01   
00uu0uu0uu :  1.19e-01   0uu00uuu0u : -1.17e-01   000uu0uuuu : -9.87e-02   
00u0uu0uuu :  1.02e-01   00u0uuu0uu :  1.01e-01   0u0u00uuuu :  7.27e-02   
0uu00uuuu0 :  9.57e-02   u000uuuuu0 : -6.75e-02   u0u00uuu0u : -6.47e-02   
State 12/15              State 13/15              State 14/15              
00u0uuu0uu : -6.02e-01   00uu0uu0uu :  5.90e-01   000uuuu0uu : -5.99e-01   
000uuu0uuu :  5.36e-01   000uu0uuuu :  5.53e-01   00u0uu0uuu : -4.40e-01   
00uu0u0uuu :  3.65e-01   00uu00uuuu :  3.80e-01   00uu00uuuu :  4.12e-01   
00u0u0uuuu : -2.90e-01   00u0uu0uuu : -2.64e-01   00uu0uu0uu : -3.26e-01   
00u0uuuu0u :  2.44e-01   000uuuuu0u : -2.14e-01   000uu0uuuu : -1.97e-01   
0u0u0uuuu0 :  1.36e-01   0u00uuuuu0 : -1.38e-01   0u0u00uuuu : -1.91e-01   
0u00uuu0uu : -1.05e-01   0u0u0uu0uu : -1.17e-01   0u00uu0uuu : -1.75e-01   
000uuuuuu0 :  7.56e-02   0u00uu0uuu : -1.03e-01   0uu00uuuu0 :  1.72e-01   
u000uuuuu0 :  7.32e-02   00uu0uuu0u :  7.90e-02   00uu0uuu0u : -9.88e-02   
u0u00u0uuu :  7.18e-02   u0u000uuuu :  7.33e-02   0uu00u0uuu :  6.66e-02   
Rootspace 23 with averaged weight 1.986e-07
 Frag    Nelec  2S+1   Ir     <n>  Max(weight)   Entropy
    0    3a+2b     6    A   0.160       0.9717  0.127879
    1    3a+3b     7    A   2.694       0.8862  0.128989
Wave function(s) in rootspace 23 in local primitive basis:
   Fac:  5.756e-04  4.934e-04  3.690e-04  5.008e-04  1.765e-04
   0.3:  9.429e-01  9.414e-01 -9.387e-01 -9.348e-01  9.295e-01
   0.0:  2.735e-01  2.778e-01 -2.850e-01 -2.952e-01  3.083e-01
   5.0: -1.195e-01 -1.200e-01  1.207e-01  1.217e-01 -1.230e-01
   0.2: -8.470e-02 -8.699e-02  9.087e-02  9.634e-02 -1.036e-01
   5.3:  7.691e-02  7.724e-02 -7.779e-02 -7.859e-02  7.958e-02
   5.2: -4.824e-02 -4.812e-02  4.791e-02  4.761e-02 -4.720e-02
  14.0:  2.954e-02  2.964e-02 -2.982e-02 -3.006e-02  3.038e-02
  0.10:  2.806e-02  2.809e-02 -2.814e-02 -2.820e-02  2.828e-02
  13.2: -2.622e-02 -2.628e-02  2.636e-02  2.648e-02 -2.663e-02
   1.0: -2.653e-02 -2.641e-02  2.620e-02  2.590e-02 -2.551e-02
   4.3: -2.051e-02 -2.053e-02  2.055e-02  2.059e-02 -2.064e-02
  14.3: -1.921e-02 -1.928e-02  1.939e-02  1.955e-02 -1.974e-02
   4.0:  1.745e-02  1.754e-02 -1.768e-02 -1.789e-02  1.816e-02
  10.0: -1.703e-02 -1.715e-02  1.735e-02  1.763e-02 -1.800e-02
   4.2: -1.536e-02 -1.543e-02  1.554e-02  1.570e-02 -1.590e-02
  10.3:  1.508e-02  1.518e-02 -1.534e-02 -1.557e-02  1.586e-02
   0.8: -1.444e-02 -1.446e-02  1.450e-02  1.455e-02 -1.461e-02
  14.2:  1.274e-02  1.269e-02 -1.261e-02 -1.248e-02  1.233e-02
   9.0: -1.195e-02 -1.192e-02  1.186e-02  1.177e-02 -1.165e-02
   2.1: -1.175e-02 -1.175e-02  1.176e-02  1.176e-02 -1.176e-02
   1.3:  1.171e-02  1.152e-02 -1.119e-02 -1.073e-02  1.013e-02
   0.6:  1.085e-02  1.087e-02 -1.091e-02 -1.096e-02  1.103e-02
   9.2:  1.028e-02  1.025e-02 -1.019e-02 -1.010e-02  9.983e-03
   7.0:  9.394e-03  9.467e-03 -9.589e-03 -9.764e-03  9.991e-03
   3.4:  9.534e-03  9.546e-03 -9.565e-03 -9.590e-03  9.621e-03
   3.1:  8.301e-03  8.291e-03 -8.272e-03 -8.243e-03  8.202e-03
   7.2:  7.172e-03  7.128e-03 -7.053e-03 -6.946e-03  6.805e-03
  0.12:  6.604e-03  6.605e-03 -6.605e-03 -6.606e-03  6.606e-03
   9.3:  6.473e-03  6.469e-03 -6.461e-03 -6.448e-03  6.429e-03
  11.1:  4.914e-03  4.908e-03 -4.897e-03 -4.881e-03  4.861e-03
   7.3: -4.307e-03 -4.328e-03  4.363e-03  4.413e-03 -4.480e-03
  13.0:  4.124e-03  4.151e-03 -4.195e-03 -4.256e-03  4.331e-03
  10.2: -4.246e-03 -4.185e-03  4.082e-03  3.934e-03 -3.741e-03
   8.4:  3.261e-03  3.272e-03 -3.291e-03 -3.317e-03  3.351e-03
   1.2: -2.384e-03 -2.365e-03  2.332e-03  2.287e-03 -2.227e-03
   6.1:  2.240e-03  2.244e-03 -2.251e-03 -2.259e-03  2.267e-03
  5.10:  1.812e-03  1.812e-03 -1.813e-03 -1.813e-03  1.812e-03
  13.3:  1.649e-03  1.671e-03 -1.709e-03 -1.763e-03  1.833e-03
   2.4:  1.191e-03  1.205e-03 -1.229e-03 -1.263e-03  1.308e-03
  12.4: -1.165e-03 -1.169e-03  1.176e-03  1.186e-03 -1.198e-03
  12.1: -8.812e-04 -8.980e-04  9.264e-04  9.665e-04 -1.019e-03
   8.1: -8.198e-04 -8.287e-04  8.439e-04  8.655e-04 -8.941e-04
  11.4:  6.124e-04  6.043e-04 -5.910e-04 -5.721e-04  5.483e-04
 14.10: -5.093e-04 -5.099e-04  5.108e-04  5.119e-04 -5.133e-04
   5.8: -5.019e-04 -5.025e-04  5.035e-04  5.051e-04 -5.069e-04
  9.10: -4.979e-04 -4.987e-04  5.001e-04  5.019e-04 -5.042e-04
 10.10:  4.163e-04  4.170e-04 -4.180e-04 -4.195e-04  4.212e-04
 13.10:  4.084e-04  4.081e-04 -4.075e-04 -4.066e-04  4.053e-04
  7.10: -3.911e-04 -3.919e-04  3.933e-04  3.951e-04 -3.973e-04
   5.6:  3.415e-04  3.409e-04 -3.399e-04 -3.385e-04  3.364e-04
  14.8:  1.408e-04  1.413e-04 -1.422e-04 -1.434e-04  1.451e-04
  10.8: -1.384e-04 -1.385e-04  1.387e-04  1.391e-04 -1.394e-04
   6.4:  1.406e-04  1.386e-04 -1.351e-04 -1.300e-04  1.228e-04
  1.10: -1.311e-04 -1.299e-04  1.279e-04  1.251e-04 -1.215e-04
   9.8:  1.074e-04  1.076e-04 -1.079e-04 -1.083e-04  1.087e-04
   0.4: -1.068e-04 -1.070e-04  1.073e-04  1.077e-04 -1.082e-04
   7.8:  1.056e-04  1.057e-04 -1.059e-04 -1.062e-04  1.066e-04
   4.8:  9.624e-05  9.665e-05 -9.737e-05 -9.834e-05  9.969e-05
  14.6: -9.304e-05 -9.290e-05  9.266e-05  9.234e-05 -9.194e-05
   9.6: -8.820e-05 -8.815e-05  8.805e-05  8.792e-05 -8.772e-05
  13.6:  7.739e-05  7.747e-05 -7.759e-05 -7.776e-05  7.794e-05
  10.6:  7.307e-05  7.298e-05 -7.284e-05 -7.264e-05  7.236e-05
   0.1:  7.239e-05  7.219e-05 -7.187e-05 -7.138e-05  7.075e-05
   7.6: -6.761e-05 -6.757e-05  6.753e-05  6.744e-05 -6.736e-05
  5.12:  6.723e-05  6.717e-05 -6.708e-05 -6.716e-05  6.730e-05
   2.9: -6.393e-05 -6.458e-05  6.565e-05  6.716e-05 -6.908e-05
Remaining 159 ENVs in rootspace 23 have combined average weight = 7.383110e-09
Leading 10 CSFs of 15 local primitive basis functions for fragment 0 in rootspace 23:
State 0/15               State 1/15               State 2/15               
00000uuuuu :  9.82e-01   0000u0uuuu : -9.09e-01   0000uuuu0u : -8.48e-01   
0000uuuuu0 : -1.14e-01   0000uuu0uu : -3.73e-01   0000uu0uuu : -4.88e-01   
000u00uuuu : -7.48e-02   00u0u00uuu :  9.11e-02   000uu0uu0u : -8.82e-02   
00u00u0uuu : -7.11e-02   0u00u0u0uu :  8.78e-02   00u0uu0u0u : -8.78e-02   
0u000uu0uu : -6.75e-02   u000u0uu0u :  7.35e-02   0u00uuu00u : -8.72e-02   
u0000uuu0u : -5.76e-02   000u00uuuu : -4.78e-02   0u000uuu0u : -6.36e-02   
uu000uu00u : -2.25e-02   00u0uu00uu : -4.04e-02   0u000u0uuu : -6.35e-02   
0uu00u00uu : -2.17e-02   000uu0u0uu : -3.86e-02   00u000uuuu :  5.20e-02   
000uu0uuu0 :  2.10e-02   00u00uuu0u :  3.76e-02   000uu00uuu : -5.06e-02   
0u0u00u0uu : -1.97e-02   00u00u0uuu :  3.63e-02   0u00uu00uu :  4.63e-02   
State 3/15               State 4/15               State 5/15               
0000uu0uuu : -8.49e-01   0000uuu0uu :  9.02e-01   0000uuuuu0 :  9.07e-01   
0000uuuu0u :  4.89e-01   0000u0uuuu : -3.79e-01   000u00uuuu : -2.98e-01   
0u00uu00uu :  8.62e-02   000uu0u0uu :  9.11e-02   00u00u0uuu : -1.83e-01   
000uu00uuu : -8.62e-02   00u0uu00uu :  9.01e-02   0u000uu0uu : -1.12e-01   
000u0u0uuu : -7.61e-02   u000uuu00u : -7.96e-02   0000uuu0uu :  8.60e-02   
u000uu0u0u :  7.02e-02   0000uuuuu0 : -6.91e-02   0u00uuu0u0 :  7.14e-02   
0u000u0uuu : -6.36e-02   000u00uuuu :  6.05e-02   u000uuuu00 :  6.74e-02   
0u00uuu00u :  5.38e-02   0u000uu0uu :  4.36e-02   00u0uu0uu0 :  6.66e-02   
000uu0uu0u :  4.98e-02   0u00u0u0uu :  3.73e-02   00000uuuuu :  5.71e-02   
00u0uu0u0u :  4.31e-02   00u0u00uuu :  3.45e-02   000uu0uuu0 :  5.51e-02   
State 6/15               State 7/15               State 8/15               
000u0uuu0u :  8.02e-01   000u0uu0uu : -6.25e-01   00u00uu0uu :  6.87e-01   
0u000uuu0u : -4.93e-01   000u0uuuu0 :  4.40e-01   00u000uuuu :  6.09e-01   
00u00uu0uu : -1.55e-01   000u00uuuu : -3.72e-01   00u00uuuu0 :  2.04e-01   
00u000uuuu : -1.23e-01   00u00uuu0u :  3.04e-01   000u0uuu0u :  1.90e-01   
00u00uuuu0 :  1.20e-01   0u000uu0uu :  2.86e-01   u0000uu0uu : -1.32e-01   
000u0u0uuu :  1.16e-01   00u00u0uuu :  1.67e-01   000u0u0uuu :  1.12e-01   
000uuuuu00 :  1.14e-01   0u000uuuu0 : -1.36e-01   u00000uuuu : -1.07e-01   
00uu0u0u0u :  7.83e-02   0u0000uuuu :  9.92e-02   00u0uuu0u0 :  9.53e-02   
0u0u0uu00u :  7.73e-02   000uuuu0u0 : -8.72e-02   00u0u0uuu0 :  9.04e-02   
0u00uuuu00 : -7.11e-02   0000uuuuu0 : -7.43e-02   00uu00u0uu : -6.88e-02   
State 9/15               State 10/15              State 11/15              
00u00uuu0u : -5.86e-01   000u0uuuu0 :  5.41e-01   000u0u0uuu :  8.69e-01   
000u0uuuu0 : -4.75e-01   0u000uu0uu : -4.42e-01   0u000uuu0u :  3.01e-01   
000u0uu0uu : -3.97e-01   0u0000uuuu : -4.42e-01   00u00uu0uu : -2.51e-01   
000u00uuuu : -3.38e-01   000u00uuuu :  3.68e-01   0u000u0uuu : -1.65e-01   
00u00u0uuu :  2.69e-01   00u00uuu0u : -2.80e-01   00u000uuuu :  1.29e-01   
0u0000uuuu : -1.83e-01   000u0uu0uu : -2.46e-01   000uuu0uu0 :  1.25e-01   
u0000uuu0u :  9.44e-02   0u00u0uuu0 : -6.61e-02   0u0u0u00uu : -8.35e-02   
00u0uuuu00 : -8.26e-02   000uu0uuu0 :  5.96e-02   u0000uu0uu :  7.63e-02   
0000uuuuu0 : -6.09e-02   0u00uuu0u0 : -5.72e-02   u00u0u0u0u : -6.70e-02   
0uu00uu00u : -5.66e-02   00uu0u0uu0 :  5.38e-02   0000uu0uuu : -5.18e-02   
State 12/15              State 13/15              State 14/15              
0u000uuu0u :  7.32e-01   00u00uuu0u :  5.96e-01   000u0uu0uu :  5.14e-01   
000u0uuu0u :  4.37e-01   00u00u0uuu :  4.64e-01   00u00u0uuu :  4.67e-01   
000u0u0uuu : -3.51e-01   0u0000uuuu : -3.75e-01   000u00uuuu : -4.17e-01   
0u000u0uuu : -2.65e-01   0u000uu0uu : -3.40e-01   000u0uuuu0 :  3.44e-01   
00u00uuuu0 :  1.58e-01   000u0uuuu0 : -3.23e-01   0u000uuuu0 : -2.48e-01   
00u00uu0uu : -1.17e-01   u0000uuu0u : -1.26e-01   0u000uu0uu : -2.03e-01   
0u00uuuu00 :  1.04e-01   00u0uuuu00 :  8.55e-02   00u00uuu0u : -1.88e-01   
0u0u00uu0u : -7.51e-02   00u0uu0uu0 :  7.73e-02   0u0000uuuu :  1.68e-01   
0uu00u0u0u : -6.80e-02   0000uuuuu0 :  7.34e-02   u0000uuu0u :  1.17e-01   
000uuuuu00 :  6.05e-02   u0000u0uuu : -6.80e-02   000uu0uuu0 : -6.96e-02   
Leading 10 CSFs of 15 local primitive basis functions for fragment 1 in rootspace 23:
State 0/15               State 1/15               State 2/15               
0000uuuuuu :  9.57e-01   000u0uuuuu :  9.91e-01   00u00uuuuu :  9.59e-01   
00u00uuuuu :  2.49e-01   0u0u0uuu0u : -6.41e-02   0000uuuuuu : -2.50e-01   
000uuu0uuu : -6.19e-02   000uu0uuuu :  6.41e-02   00u0u0uuuu :  6.08e-02   
0u00uuuu0u : -6.18e-02   00uu0uu0uu : -6.18e-02   00uu0u0uuu :  6.01e-02   
00u0uuu0uu : -5.97e-02   u00u0uuuu0 : -5.63e-02   u0u00uuuu0 : -5.96e-02   
0u000uuuuu : -5.95e-02   u0uu0uu0u0 : -2.39e-02   0uu00uuu0u : -5.84e-02   
u000uuuuu0 : -5.41e-02   0u0uu0uu0u :  2.28e-02   0uuu0u0u0u :  2.19e-02   
u0u0uuu0u0 : -2.30e-02   00uuu0u0uu :  2.07e-02   0uu0u0uu0u :  2.18e-02   
0u0uuu0u0u : -2.18e-02   u00uu0uuu0 :  1.95e-02   00uuu00uuu : -2.12e-02   
00uuuu00uu : -1.96e-02   0uuu0uu00u : -1.94e-02   u0uu0u0uu0 :  1.91e-02   
State 3/15               State 4/15               State 5/15               
0u000uuuuu :  9.89e-01   u0000uuuuu :  9.90e-01   00u0uuuuu0 :  9.33e-01   
0u00u0uuuu :  6.59e-02   u0u00uu0uu :  6.86e-02   00uu0uuu0u :  2.97e-01   
0u0u0u0uuu :  6.54e-02   u00u0u0uuu :  6.38e-02   0u00uuuuu0 :  1.30e-01   
0uu00uu0uu :  6.05e-02   u000u0uuuu :  6.36e-02   0uu00uuuu0 :  6.30e-02   
0000uuuuuu :  5.77e-02   uu000uuu0u :  6.08e-02   00uuuu0uu0 : -6.14e-02   
uu000uuuu0 : -5.48e-02   uu00u0uu0u : -2.27e-02   0uu0uuuu00 :  6.05e-02   
uuu00uu0u0 :  2.39e-02   uu0u0u0u0u : -2.25e-02   00u0uu0uuu : -5.91e-02   
0u0uu00uuu : -2.13e-02   u00uu00uuu : -2.14e-02   00uu00uuuu :  5.84e-02   
0uu0u0u0uu : -2.07e-02   u0u0u0u0uu : -2.04e-02   000uuuuu0u : -3.93e-02   
0uuu0u00uu : -2.06e-02   u0uu0u00uu : -2.03e-02   u00u0uuuu0 :  3.21e-02   
State 6/15               State 7/15               State 8/15               
00uu0uuuu0 :  9.43e-01   000uuuuu0u :  9.06e-01   000uuuuuu0 :  7.37e-01   
00u0uuuu0u :  2.65e-01   00uu0uuu0u :  3.32e-01   00u0uuuu0u : -5.55e-01   
00u0u0uuuu :  9.92e-02   000uu0uuuu :  1.69e-01   00uu0u0uuu :  2.11e-01   
0u0u0uuuu0 : -9.56e-02   0u0u0uuu0u :  1.11e-01   0u00uuuu0u : -1.45e-01   
0uu00uuu0u :  7.42e-02   00u0uuuuu0 : -7.18e-02   0u0u0uuuu0 :  1.32e-01   
00uuu0uuu0 :  6.26e-02   00uu00uuuu :  7.01e-02   0uu00uuu0u :  1.19e-01   
0uuu0uuu00 :  6.10e-02   00uuuuu00u :  6.23e-02   00uu0uuuu0 :  1.09e-01   
000uuuuuu0 :  6.09e-02   00uu0uu0uu :  6.07e-02   u0u00uuuu0 :  9.48e-02   
000uuu0uuu :  3.21e-02   u00uuuuu00 : -5.52e-02   00u0uuu0uu :  8.27e-02   
u000uuuuu0 : -2.71e-02   u0u00uuu0u :  4.69e-02   000uuu0uuu :  7.26e-02   
State 9/15               State 10/15              State 11/15              
00uu0uuu0u :  7.22e-01   00u0uuuu0u : -5.86e-01   00u0uu0uuu : -6.21e-01   
000uu0uuuu : -3.75e-01   000uuuuuu0 : -5.14e-01   00uu00uuuu : -5.02e-01   
0u0u0uuu0u : -3.67e-01   000uuu0uuu :  3.44e-01   0uu00uuuu0 : -4.90e-01   
00u0uuuuu0 : -2.38e-01   0u00uuuu0u : -3.15e-01   00uu0uuu0u :  1.80e-01   
00uu00uuuu :  2.02e-01   00u0u0uuuu : -2.49e-01   0u00uuuuu0 : -1.52e-01   
000uuuuu0u : -1.91e-01   00uu0uuuu0 :  2.10e-01   0u00uu0uuu : -1.44e-01   
0u0u00uuuu : -1.34e-01   0u0u0uuuu0 : -1.39e-01   0u0u0uuu0u : -1.18e-01   
00uu0uu0uu :  1.19e-01   0uu00uuu0u : -1.17e-01   000uu0uuuu : -9.88e-02   
00u0uu0uuu :  1.03e-01   00u0uuu0uu :  1.01e-01   0u0u00uuuu :  7.23e-02   
0uu00uuuu0 :  9.63e-02   u000uuuuu0 : -6.74e-02   u0u00uuu0u : -6.47e-02   
State 12/15              State 13/15              State 14/15              
00u0uuu0uu : -6.03e-01   00uu0uu0uu :  5.90e-01   000uuuu0uu : -5.99e-01   
000uuu0uuu :  5.35e-01   000uu0uuuu :  5.53e-01   00u0uu0uuu : -4.40e-01   
00uu0u0uuu :  3.64e-01   00uu00uuuu :  3.81e-01   00uu00uuuu :  4.12e-01   
00u0u0uuuu : -2.89e-01   00u0uu0uuu : -2.64e-01   00uu0uu0uu : -3.26e-01   
00u0uuuu0u :  2.45e-01   000uuuuu0u : -2.15e-01   000uu0uuuu : -1.97e-01   
0u0u0uuuu0 :  1.36e-01   0u00uuuuu0 : -1.38e-01   0u0u00uuuu : -1.91e-01   
0u00uuu0uu : -1.05e-01   0u0u0uu0uu : -1.18e-01   0u00uu0uuu : -1.75e-01   
000uuuuuu0 :  7.56e-02   0u00uu0uuu : -1.03e-01   0uu00uuuu0 :  1.72e-01   
u000uuuuu0 :  7.33e-02   00uu0uuu0u :  7.83e-02   00uu0uuu0u : -9.91e-02   
u0u00u0uuu :  7.18e-02   u0u000uuuu :  7.33e-02   0uu00u0uuu :  6.65e-02   
All 33 rootspaces accounted for
