#INFO: **** input file is /project/lgagliardi/valayagarawal/lasscf/mof_nodes/Al_Fe_Fe/production/20_11/lassi_1_1.py ****
import numpy as np
import sys
from pyscf import gto, scf, tools,lib, mcscf
from pyscf.mcscf import avas,project_init_guess
from pyscf import mcscf
from mrh.my_pyscf.tools import molden
from mrh.my_pyscf.mcscf import lasscf_async as asyn
mol_name='Al_Fe_Fe.xyz' # Al-Fe-Fe MOF node
basis={'C': 'cc-pvdz','H': 'cc-pvdz','O': 'cc-pvtz','Al': 'cc-pvtz','Fe': 'cc-pvtz'}
n=1
output='r1_n'+str(n)+'.log'
mol=gto.M(atom=mol_name,verbose=4,spin=9,charge=0,basis=basis, output=output) #spin = 2S
mf=scf.RHF(mol)
mf.init_guess='atom'
mf=mf.density_fit()
mf.max_cycle=1
mf.kernel()
mf.mo_coeff=np.load('hf.npy')
#np.save('hf',mf.mo_coeff)
#ncas,nelecas,guess_mo_coeff=avas.kernel(mf,['Fe 3d', 'Fe 4d'],minao=mol.basis, openshell_option=3)
#mc_test = mcscf.CASCI (mf, ncas, nelecas)
#tools.molden.from_mo(mol,'avas.molden',guess_mo_coeff[:,mc_test.ncore:][:,:ncas])
#final_list=[5,6,8,9,10,11,12,13,14]#,15,16,17,18,19,20,21,22,23,24,25]+mc_test.ncore

mo_guess=np.load('las_20_11.npy')
las=asyn.LASSCF(mf,(10,10),((1,5),(5,0)),spin_sub=(5,6),verbose=4) # spin is 2S+1
las.set_fragments_(([17],[19]),mo_guess)
las.mo_coeff=mo_guess
from mrh.my_pyscf.lassi import states
las=states.spin_shuffle(las)
#for _ in range(i):
las=states.all_single_excitations(las)
ncsf=las.get_ugg().ncsf_sub
lroots=np.minimum(n,ncsf)
las.lasci()
las.lasci(lroots=lroots)
e_roots, si= las.lassi(opt=1)
from mrh.my_pyscf.lassi.sitools import analyze
analyze(las,si, state=[0,1,2,3,4])
#INFO: ******************** input file end ********************


System: uname_result(system='Linux', node='midway3-0544.rcc.local', release='4.18.0-305.3.1.el8.x86_64', version='#1 SMP Tue Jun 1 16:14:33 UTC 2021', machine='x86_64')  Threads 16
Python 3.9.12 (main, Apr  5 2022, 06:56:58) 
[GCC 7.5.0]
numpy 1.25.0  scipy 1.7.3
Date: Thu Feb 29 09:10:49 2024
PySCF version 2.5.0
PySCF path  /project/lgagliardi/shared/Apps/pyscf
GIT ORIG_HEAD 0bc590ffddec98eec5d2513a3d85274b7a791bc6
GIT HEAD (branch master) 6f8ce439fbe0c26ec4d226e2225b28c7f668f922

[ENV] PYSCF_MAX_MEMORY 128000
[CONFIG] conf_file /home/valayagarawal/.pyscf_conf.py
[INPUT] verbose = 4
[INPUT] num. atoms = 28
[INPUT] num. electrons = 211
[INPUT] charge = 0
[INPUT] spin (= nelec alpha-beta = 2S) = 9
[INPUT] symmetry False subgroup None
[INPUT] Mole.unit = angstrom
[INPUT] Symbol           X                Y                Z      unit          X                Y                Z       unit  Magmom
[INPUT]  1 O     -2.220198244100   0.399190300300   1.694471698900 AA   -4.195566623589   0.754360339150   3.202087436747 Bohr   0.0
[INPUT]  2 O     -1.685553244600  -1.782306321700   1.431399507200 AA   -3.185234000666  -3.368070818094   2.704953043445 Bohr   0.0
[INPUT]  3 C     -2.268517865100  -0.831955037900   1.983951274000 AA   -4.286877473722  -1.572167169583   3.749124552342 Bohr   0.0
[INPUT]  4 H     -2.913342016700  -1.076728588500   2.843786805300 AA   -5.505418518751  -2.034722142755   5.373978218669 Bohr   0.0
[INPUT]  5 O      1.388288080900   2.079556156200  -1.347085675300 AA    2.623484254899   3.929791595871  -2.545622992642 Bohr   0.0
[INPUT]  6 O     -0.759908859500   2.580923634700  -0.849227704000 AA   -1.436019624086   4.877238818000  -1.604807777953 Bohr   0.0
[INPUT]  7 C      0.346567468600   2.753895325000  -1.438835699000 AA    0.654917599338   5.204107939970  -2.719005409357 Bohr   0.0
[INPUT]  8 H      0.372379614500   3.617699659800  -2.123091150300 AA    0.703695485776   6.836461557954  -4.012060811555 Bohr   0.0
[INPUT]  9 O      1.046960908100  -2.642534200000   0.961324672200 AA    1.978469379435  -4.993665912797   1.816640347245 Bohr   0.0
[INPUT] 10 O     -0.399190300300   2.220198244100   1.694471698900 AA   -0.754360339150   4.195566623589   3.202087436747 Bohr   0.0
[INPUT] 11 O      1.782306321700   1.685553244600   1.431399507200 AA    3.368070818094   3.185234000666   2.704953043445 Bohr   0.0
[INPUT] 12 C      0.831955037900   2.268517865100   1.983951274000 AA    1.572167169583   4.286877473722   3.749124552342 Bohr   0.0
[INPUT] 13 H      1.076728588500   2.913342016700   2.843786805300 AA    2.034722142755   5.505418518751   5.373978218669 Bohr   0.0
[INPUT] 14 O     -2.079556156200  -1.388288080900  -1.347085675300 AA   -3.929791595871  -2.623484254899  -2.545622992642 Bohr   0.0
[INPUT] 15 O     -2.580923634700   0.759908859500  -0.849227704000 AA   -4.877238818000   1.436019624086  -1.604807777953 Bohr   0.0
[INPUT] 16 C     -2.753895325000  -0.346567468600  -1.438835699000 AA   -5.204107939970  -0.654917599338  -2.719005409357 Bohr   0.0
[INPUT] 17 H     -3.617699659800  -0.372379614500  -2.123091150300 AA   -6.836461557954  -0.703695485776  -4.012060811555 Bohr   0.0
[INPUT] 18 Fe    -0.379874189300  -1.792603362900  -0.200337730300 AA   -0.717858179568  -3.387529405855  -0.378583442684 Bohr   0.0
[INPUT] 19 O      0.642223180300  -2.237796553000  -1.892914517600 AA    1.213625921614  -4.228822607666  -3.577090015477 Bohr   0.0
[INPUT] 20 Fe     1.792603362900   0.379874189300  -0.200337730300 AA    3.387529405855   0.717858179568  -0.378583442684 Bohr   0.0
[INPUT] 21 O      2.237796553000  -0.642223180300  -1.892914517600 AA    4.228822607666  -1.213625921614  -3.577090015477 Bohr   0.0
[INPUT] 22 O      2.642534200000  -1.046960908100   0.961324672200 AA    4.993665912797  -1.978469379435   1.816640347245 Bohr   0.0
[INPUT] 23 Al    -1.236271642100   1.236271642100   0.350650148000 AA   -2.336214819135   2.336214819135   0.662632745258 Bohr   0.0
[INPUT] 24 O     -0.044950195400   0.044950195400   0.012762141300 AA   -0.084943558552   0.084943558552   0.024116951820 Bohr   0.0
[INPUT] 25 C      1.645528685000  -1.645528685000  -2.357112465400 AA    3.109598544766  -3.109598544766  -4.454297004404 Bohr   0.0
[INPUT] 26 H      2.056906298400  -2.056906298400  -3.294571291600 AA    3.886989567869  -3.886989567869  -6.225837438979 Bohr   0.0
[INPUT] 27 C      2.160924281100  -2.160924281100   1.277584186800 AA    4.083555067202  -4.083555067202   2.414284214127 Bohr   0.0
[INPUT] 28 H      2.796080543300  -2.796080543300   1.918244302400 AA    5.283826449062  -5.283826449062   3.624956371543 Bohr   0.0

nuclear repulsion = 3455.30471244119
number of shells = 192
number of NR pGTOs = 1065
number of NR cGTOs = 674
basis = {'C': 'cc-pvdz', 'H': 'cc-pvdz', 'O': 'cc-pvtz', 'Al': 'cc-pvtz', 'Fe': 'cc-pvtz'}
ecp = {}
CPU time:         2.38


******** <class 'pyscf.df.df_jk.DFROHF'> ********
method = DFROHF
initial guess = atom
damping factor = 0
level_shift factor = 0
DIIS = <class 'pyscf.scf.diis.CDIIS'>
diis_start_cycle = 1
diis_space = 8
diis_damp = 0
SCF conv_tol = 1e-09
SCF conv_tol_grad = None
SCF max_cycles = 1
direct_scf = False
chkfile to save SCF result = /scratch/local/jobs/18089093/tmp7lhpqgpg
max_memory 128000 MB (current use 76 MB)
num. doubly occ = 101  num. singly occ = 9
Set gradient conv threshold to 3.16228e-05
Initial guess from the superpostion of atomic densties.
Spherically averaged atomic HF for {'Fe', 'C', 'O', 'H', 'Al'}


******** <class 'pyscf.scf.atom_hf.AtomSphAverageRHF'> ********
method = AtomSphAverageRHF
initial guess = minao
damping factor = 0
level_shift factor = 0
DIIS = <class 'pyscf.scf.diis.CDIIS'>
diis_start_cycle = 1
diis_space = 8
diis_damp = 0
SCF conv_tol = 1e-09
SCF conv_tol_grad = None
SCF max_cycles = 50
direct_scf = True
direct_scf_tol = 1e-13
chkfile to save SCF result = /scratch/local/jobs/18089093/tmp6h513i_s
max_memory 128000 MB (current use 76 MB)
atom = O
Set gradient conv threshold to 3.16228e-05
Initial guess from minao.
init E= -74.2776996160121
cycle= 1 E= -74.2879632957298  delta_E= -0.0103  |g|=    0  |ddm|= 0.12
cycle= 2 E= -74.2889455295058  delta_E= -0.000982  |g|=    0  |ddm|= 0.0571
cycle= 3 E= -74.2891874928552  delta_E= -0.000242  |g|=    0  |ddm|= 0.0164
cycle= 4 E= -74.2891907662377  delta_E= -3.27e-06  |g|=    0  |ddm|= 0.00334
cycle= 5 E= -74.2891907667002  delta_E= -4.62e-10  |g|=    0  |ddm|= 2.73e-05
Extra cycle  E= -74.2891907667016  delta_E= -1.41e-12  |g|=    0  |ddm|= 2.08e-06
Atomic HF for atom  O  converged. SCF energy = -74.2891907667016



******** <class 'pyscf.scf.atom_hf.AtomSphAverageRHF'> ********
method = AtomSphAverageRHF
initial guess = minao
damping factor = 0
level_shift factor = 0
DIIS = <class 'pyscf.scf.diis.CDIIS'>
diis_start_cycle = 1
diis_space = 8
diis_damp = 0
SCF conv_tol = 1e-09
SCF conv_tol_grad = None
SCF max_cycles = 50
direct_scf = True
direct_scf_tol = 1e-13
chkfile to save SCF result = /scratch/local/jobs/18089093/tmp4g6qy3v7
max_memory 128000 MB (current use 101 MB)
atom = C
Set gradient conv threshold to 3.16228e-05
Initial guess from minao.
init E= -37.2786538116583
cycle= 1 E= -37.3229525149147  delta_E= -0.0443  |g|=    0  |ddm|= 0.403
cycle= 2 E= -37.3269979443145  delta_E= -0.00405  |g|=    0  |ddm|= 0.158
cycle= 3 E= -37.327416890501  delta_E= -0.000419  |g|=    0  |ddm|= 0.0324
cycle= 4 E= -37.3274218270201  delta_E= -4.94e-06  |g|=    0  |ddm|= 0.00651
cycle= 5 E= -37.3274218271774  delta_E= -1.57e-10  |g|=    0  |ddm|= 2.35e-05
Extra cycle  E= -37.3274218271781  delta_E= -6.54e-13  |g|=    0  |ddm|= 2.26e-06
Atomic HF for atom  C  converged. SCF energy = -37.3274218271781



******** 1 electron system ********
Atomic HF for atom  H  converged. SCF energy = -0.499278403419583



******** <class 'pyscf.scf.atom_hf.AtomSphAverageRHF'> ********
method = AtomSphAverageRHF
initial guess = minao
damping factor = 0
level_shift factor = 0
DIIS = <class 'pyscf.scf.diis.CDIIS'>
diis_start_cycle = 1
diis_space = 8
diis_damp = 0
SCF conv_tol = 1e-09
SCF conv_tol_grad = None
SCF max_cycles = 50
direct_scf = True
direct_scf_tol = 1e-13
chkfile to save SCF result = /scratch/local/jobs/18089093/tmp41ksmng_
max_memory 128000 MB (current use 103 MB)
atom = Fe
Set gradient conv threshold to 3.16228e-05
Initial guess from minao.
init E= -1260.96738533155
cycle= 1 E= -1256.37714318082  delta_E= 4.59  |g|=    0  |ddm|= 4.24
cycle= 2 E= -1255.54237595451  delta_E= 0.835  |g|=    0  |ddm|=   15
cycle= 3 E= -1260.89038467173  delta_E= -5.35  |g|=    0  |ddm|= 13.7
cycle= 4 E= -1261.57047534209  delta_E= -0.68  |g|=    0  |ddm|= 0.824
cycle= 5 E= -1261.57622492119  delta_E= -0.00575  |g|=    0  |ddm|= 0.301
cycle= 6 E= -1261.57666902675  delta_E= -0.000444  |g|=    0  |ddm|= 0.0322
cycle= 7 E= -1261.57674274459  delta_E= -7.37e-05  |g|=    0  |ddm|= 0.0137
cycle= 8 E= -1261.57674388082  delta_E= -1.14e-06  |g|=    0  |ddm|= 0.00344
cycle= 9 E= -1261.57674388923  delta_E= -8.41e-09  |g|=    0  |ddm|= 0.000127
cycle= 10 E= -1261.57674388923  delta_E= 2.5e-12  |g|=    0  |ddm|= 3.35e-06
Extra cycle  E= -1261.57674388923  delta_E= 2.27e-13  |g|=    0  |ddm|= 3.97e-07
Atomic HF for atom  Fe  converged. SCF energy = -1261.57674388923



******** <class 'pyscf.scf.atom_hf.AtomSphAverageRHF'> ********
method = AtomSphAverageRHF
initial guess = minao
damping factor = 0
level_shift factor = 0
DIIS = <class 'pyscf.scf.diis.CDIIS'>
diis_start_cycle = 1
diis_space = 8
diis_damp = 0
SCF conv_tol = 1e-09
SCF conv_tol_grad = None
SCF max_cycles = 50
direct_scf = True
direct_scf_tol = 1e-13
chkfile to save SCF result = /scratch/local/jobs/18089093/tmpdz9j6q12
max_memory 128000 MB (current use 147 MB)
atom = Al
Set gradient conv threshold to 3.16228e-05
Initial guess from minao.
init E= -241.752580224975
cycle= 1 E= -241.774394279578  delta_E= -0.0218  |g|=    0  |ddm|= 0.33
cycle= 2 E= -241.774822880148  delta_E= -0.000429  |g|=    0  |ddm|= 0.0589
cycle= 3 E= -241.77484101355  delta_E= -1.81e-05  |g|=    0  |ddm|= 0.00725
cycle= 4 E= -241.774841578884  delta_E= -5.65e-07  |g|=    0  |ddm|= 0.00216
cycle= 5 E= -241.774841604663  delta_E= -2.58e-08  |g|=    0  |ddm|= 0.000719
cycle= 6 E= -241.774841604811  delta_E= -1.48e-10  |g|=    0  |ddm|= 5.97e-05
Extra cycle  E= -241.774841604812  delta_E= -1.42e-12  |g|=    0  |ddm|= 4.44e-06
Atomic HF for atom  Al  converged. SCF energy = -241.774841604812

******** <class 'pyscf.df.df.DF'> ********
auxbasis = None
max_memory = 128000
Even tempered Gaussians are generated as DF auxbasis for  Al Fe C O H
init E= -3975.68788353037
  HOMO = -0.0424478076028767  LUMO = -0.0316668341931182
cycle= 1 E= -3969.65777955844  delta_E= 6.03  |g|= 3.14  |ddm|= 4.67
SCF not converged.
SCF energy = -3969.65777955844
Built 4 spin(local Sz)-shuffled LAS states from 1 reference LAS states
Built 28 singly-excited LAS states from 5 reference LAS states
Entering product-state fixed-point CI iteration
Cycle 0: max grad = 1.884708e-01 ; sigma = 0.000000e+00
Cycle 1: max grad = 1.229424e-05 ; sigma = 3.346305e-02
Cycle 2: max grad = 2.560975e-06 ; sigma = 8.625989e-11
Product_state fixed-point CI iteration converged after 2 cycles
Entering product-state fixed-point CI iteration
Cycle 0: max grad = 1.884708e-01 ; sigma = 0.000000e+00
Cycle 1: max grad = 5.393863e-06 ; sigma = 3.348211e-02
Cycle 2: max grad = 2.369173e-06 ; sigma = 5.258016e-12
Product_state fixed-point CI iteration converged after 2 cycles
Entering product-state fixed-point CI iteration
Cycle 0: max grad = 1.884708e-01 ; sigma = 0.000000e+00
Cycle 1: max grad = 3.475708e-06 ; sigma = 3.349033e-02
Cycle 2: max grad = 2.276478e-06 ; sigma = 6.238565e-12
Product_state fixed-point CI iteration converged after 2 cycles
Entering product-state fixed-point CI iteration
Cycle 0: max grad = 1.884708e-01 ; sigma = 0.000000e+00
Cycle 1: max grad = 3.522775e-06 ; sigma = 3.348759e-02
Cycle 2: max grad = 2.308122e-06 ; sigma = 8.569145e-12
Product_state fixed-point CI iteration converged after 2 cycles
Entering product-state fixed-point CI iteration
Cycle 0: max grad = 1.884708e-01 ; sigma = 0.000000e+00
Cycle 1: max grad = 8.368410e-06 ; sigma = 3.347392e-02
Cycle 2: max grad = 2.455328e-06 ; sigma = 1.882228e-11
Product_state fixed-point CI iteration converged after 2 cycles
Entering product-state fixed-point CI iteration
Cycle 0: max grad = 2.784311e-01 ; sigma = 0.000000e+00
Cycle 1: max grad = 4.634879e-05 ; sigma = 5.318269e-02
Cycle 2: max grad = 5.292951e-07 ; sigma = 5.085561e-08
Cycle 3: max grad = 8.523431e-10 ; sigma = 6.359357e-13
Product_state fixed-point CI iteration converged after 3 cycles
Entering product-state fixed-point CI iteration
Cycle 0: max grad = 3.067236e-01 ; sigma = 0.000000e+00
Cycle 1: max grad = 5.992311e-04 ; sigma = 1.169371e-01
Cycle 2: max grad = 2.250365e-06 ; sigma = 4.611400e-06
Cycle 3: max grad = 9.943609e-07 ; sigma = 9.094947e-12
Product_state fixed-point CI iteration converged after 3 cycles
Entering product-state fixed-point CI iteration
Cycle 0: max grad = 2.327562e-01 ; sigma = 0.000000e+00
Cycle 1: max grad = 5.648643e-04 ; sigma = 4.391494e-02
Cycle 2: max grad = 4.292256e-06 ; sigma = 2.400541e-06
Cycle 3: max grad = 8.594107e-07 ; sigma = 5.933032e-12
Product_state fixed-point CI iteration converged after 3 cycles
Entering product-state fixed-point CI iteration
Cycle 0: max grad = 3.083310e-01 ; sigma = 0.000000e+00
Cycle 1: max grad = 1.806373e-04 ; sigma = 5.815313e-03
Cycle 2: max grad = 3.471513e-06 ; sigma = 1.001354e-06
Cycle 3: max grad = 3.580480e-06 ; sigma = 1.041087e-10
Cycle 4: max grad = 1.643296e-06 ; sigma = 2.607692e-12
Product_state fixed-point CI iteration converged after 4 cycles
Entering product-state fixed-point CI iteration
Cycle 0: max grad = 2.551366e-01 ; sigma = 0.000000e+00
Cycle 1: max grad = 2.036378e-04 ; sigma = 8.150694e-02
Cycle 2: max grad = 1.928086e-06 ; sigma = 9.333423e-07
Cycle 3: max grad = 8.431799e-07 ; sigma = 2.671356e-10
Cycle 4: max grad = 4.869203e-07 ; sigma = 1.115552e-11
Product_state fixed-point CI iteration converged after 4 cycles
Entering product-state fixed-point CI iteration
Cycle 0: max grad = 3.077537e-01 ; sigma = 0.000000e+00
Cycle 1: max grad = 3.556113e-04 ; sigma = 3.436487e-02
Cycle 2: max grad = 1.955002e-06 ; sigma = 2.408482e-07
Cycle 3: max grad = 1.232657e-06 ; sigma = 1.876543e-11
Product_state fixed-point CI iteration converged after 3 cycles
Entering product-state fixed-point CI iteration
Cycle 0: max grad = 2.785850e-01 ; sigma = 0.000000e+00
Cycle 1: max grad = 4.595661e-05 ; sigma = 5.318012e-02
Cycle 2: max grad = 5.618072e-07 ; sigma = 5.927161e-08
Cycle 3: max grad = 7.166697e-10 ; sigma = 6.856737e-13
Product_state fixed-point CI iteration converged after 3 cycles
Entering product-state fixed-point CI iteration
Cycle 0: max grad = 3.067052e-01 ; sigma = 0.000000e+00
Cycle 1: max grad = 5.861469e-04 ; sigma = 1.170948e-01
Cycle 2: max grad = 2.135161e-06 ; sigma = 4.179263e-06
Cycle 3: max grad = 1.320258e-06 ; sigma = 9.030998e-12
Product_state fixed-point CI iteration converged after 3 cycles
Entering product-state fixed-point CI iteration
Cycle 0: max grad = 2.327512e-01 ; sigma = 0.000000e+00
Cycle 1: max grad = 5.626359e-04 ; sigma = 4.458519e-02
Cycle 2: max grad = 4.646999e-06 ; sigma = 4.939012e-06
Cycle 3: max grad = 6.020661e-07 ; sigma = 1.310241e-11
Product_state fixed-point CI iteration converged after 3 cycles
Entering product-state fixed-point CI iteration
Cycle 0: max grad = 3.083128e-01 ; sigma = 0.000000e+00
Cycle 1: max grad = 2.345229e-04 ; sigma = 5.828458e-03
Cycle 2: max grad = 5.566392e-06 ; sigma = 1.777866e-06
Cycle 3: max grad = 1.318146e-06 ; sigma = 3.041336e-10
Cycle 4: max grad = 1.083318e-06 ; sigma = 3.389289e-12
Product_state fixed-point CI iteration converged after 4 cycles
Entering product-state fixed-point CI iteration
Cycle 0: max grad = 2.550410e-01 ; sigma = 0.000000e+00
Cycle 1: max grad = 2.379875e-04 ; sigma = 8.171111e-02
Cycle 2: max grad = 1.927086e-06 ; sigma = 1.317811e-06
Cycle 3: max grad = 9.762213e-07 ; sigma = 3.389715e-10
Cycle 4: max grad = 5.648514e-07 ; sigma = 1.476508e-11
Product_state fixed-point CI iteration converged after 4 cycles
Entering product-state fixed-point CI iteration
Cycle 0: max grad = 3.077285e-01 ; sigma = 0.000000e+00
Cycle 1: max grad = 3.454360e-04 ; sigma = 3.460276e-02
Cycle 2: max grad = 2.317995e-06 ; sigma = 4.272843e-07
Cycle 3: max grad = 1.132493e-06 ; sigma = 8.860468e-12
Product_state fixed-point CI iteration converged after 3 cycles
Entering product-state fixed-point CI iteration
Cycle 0: max grad = 2.786705e-01 ; sigma = 0.000000e+00
Cycle 1: max grad = 4.651225e-05 ; sigma = 5.317862e-02
Cycle 2: max grad = 5.794670e-07 ; sigma = 6.407415e-08
Cycle 3: max grad = 6.451018e-10 ; sigma = 6.110668e-13
Product_state fixed-point CI iteration converged after 3 cycles
Entering product-state fixed-point CI iteration
Cycle 0: max grad = 3.067015e-01 ; sigma = 0.000000e+00
Cycle 1: max grad = 5.835233e-04 ; sigma = 1.171264e-01
Cycle 2: max grad = 2.112375e-06 ; sigma = 4.118257e-06
Cycle 3: max grad = 1.202589e-06 ; sigma = 7.382539e-12
Product_state fixed-point CI iteration converged after 3 cycles
Entering product-state fixed-point CI iteration
Cycle 0: max grad = 2.327502e-01 ; sigma = 0.000000e+00
Cycle 1: max grad = 5.629732e-04 ; sigma = 4.471923e-02
Cycle 2: max grad = 4.715402e-06 ; sigma = 5.349624e-06
Cycle 3: max grad = 5.617916e-07 ; sigma = 1.445954e-11
Product_state fixed-point CI iteration converged after 3 cycles
Entering product-state fixed-point CI iteration
Cycle 0: max grad = 3.083092e-01 ; sigma = 0.000000e+00
Cycle 1: max grad = 2.491446e-04 ; sigma = 5.831027e-03
Cycle 2: max grad = 6.002161e-06 ; sigma = 1.870328e-06
Cycle 3: max grad = 1.760538e-06 ; sigma = 3.922196e-10
Cycle 4: max grad = 1.220893e-06 ; sigma = 1.051603e-11
Product_state fixed-point CI iteration converged after 4 cycles
Entering product-state fixed-point CI iteration
Cycle 0: max grad = 2.550219e-01 ; sigma = 0.000000e+00
Cycle 1: max grad = 2.449739e-04 ; sigma = 8.175297e-02
Cycle 2: max grad = 1.955722e-06 ; sigma = 1.402521e-06
Cycle 3: max grad = 1.005238e-06 ; sigma = 3.551790e-10
Cycle 4: max grad = 5.831845e-07 ; sigma = 1.567813e-11
Product_state fixed-point CI iteration converged after 4 cycles
Entering product-state fixed-point CI iteration
Cycle 0: max grad = 3.077235e-01 ; sigma = 0.000000e+00
Cycle 1: max grad = 3.433519e-04 ; sigma = 3.465135e-02
Cycle 2: max grad = 2.389028e-06 ; sigma = 4.710340e-07
Cycle 3: max grad = 1.062282e-06 ; sigma = 6.579626e-12
Product_state fixed-point CI iteration converged after 3 cycles
Entering product-state fixed-point CI iteration
Cycle 0: max grad = 2.786876e-01 ; sigma = 0.000000e+00
Cycle 1: max grad = 4.673089e-05 ; sigma = 5.317831e-02
Cycle 2: max grad = 5.829607e-07 ; sigma = 6.504438e-08
Cycle 3: max grad = 6.311464e-10 ; sigma = 6.536993e-13
Product_state fixed-point CI iteration converged after 3 cycles
Entering product-state fixed-point CI iteration
Cycle 0: max grad = 3.067125e-01 ; sigma = 0.000000e+00
Cycle 1: max grad = 5.913872e-04 ; sigma = 1.170316e-01
Cycle 2: max grad = 2.179901e-06 ; sigma = 4.326966e-06
Cycle 3: max grad = 2.905984e-07 ; sigma = 7.275958e-12
Product_state fixed-point CI iteration converged after 3 cycles
Entering product-state fixed-point CI iteration
Cycle 0: max grad = 2.327532e-01 ; sigma = 0.000000e+00
Cycle 1: max grad = 5.619537e-04 ; sigma = 4.431709e-02
Cycle 2: max grad = 4.507687e-06 ; sigma = 4.019992e-06
Cycle 3: max grad = 6.936838e-07 ; sigma = 1.058709e-11
Product_state fixed-point CI iteration converged after 3 cycles
Entering product-state fixed-point CI iteration
Cycle 0: max grad = 3.083201e-01 ; sigma = 0.000000e+00
Cycle 1: max grad = 2.055908e-04 ; sigma = 5.823260e-03
Cycle 2: max grad = 4.711353e-06 ; sigma = 1.531160e-06
Cycle 3: max grad = 2.353117e-06 ; sigma = 2.384439e-10
Cycle 4: max grad = 1.042747e-06 ; sigma = 9.180212e-12
Product_state fixed-point CI iteration converged after 4 cycles
Entering product-state fixed-point CI iteration
Cycle 0: max grad = 2.550792e-01 ; sigma = 0.000000e+00
Cycle 1: max grad = 2.241311e-04 ; sigma = 8.162841e-02
Cycle 2: max grad = 1.913730e-06 ; sigma = 1.156262e-06
Cycle 3: max grad = 9.208399e-07 ; sigma = 3.084537e-10
Cycle 4: max grad = 5.292846e-07 ; sigma = 1.311307e-11
Product_state fixed-point CI iteration converged after 4 cycles
Entering product-state fixed-point CI iteration
Cycle 0: max grad = 3.077386e-01 ; sigma = 0.000000e+00
Cycle 1: max grad = 3.495559e-04 ; sigma = 3.450660e-02
Cycle 2: max grad = 2.174276e-06 ; sigma = 3.461726e-07
Cycle 3: max grad = 1.213587e-06 ; sigma = 1.326583e-11
Product_state fixed-point CI iteration converged after 3 cycles
Entering product-state fixed-point CI iteration
Cycle 0: max grad = 2.786363e-01 ; sigma = 0.000000e+00
Cycle 1: max grad = 4.607566e-05 ; sigma = 5.317923e-02
Cycle 2: max grad = 5.724407e-07 ; sigma = 6.214310e-08
Cycle 3: max grad = 6.733788e-10 ; sigma = 6.927792e-13
Product_state fixed-point CI iteration converged after 3 cycles
Entering product-state fixed-point CI iteration
Cycle 0: max grad = 2.327602e-01 ; sigma = 0.000000e+00
Cycle 1: max grad = 6.209126e-04 ; sigma = 4.337872e-02
Cycle 2: max grad = 3.992423e-06 ; sigma = 1.978466e-07
Cycle 3: max grad = 1.137854e-06 ; sigma = 3.968381e-12
Product_state fixed-point CI iteration converged after 3 cycles
Entering product-state fixed-point CI iteration
Cycle 0: max grad = 3.077738e-01 ; sigma = 0.000000e+00
Cycle 1: max grad = 3.634427e-04 ; sigma = 3.418067e-02
Cycle 2: max grad = 3.346335e-06 ; sigma = 1.317945e-07
Cycle 3: max grad = 4.962140e-07 ; sigma = 9.578116e-12
Product_state fixed-point CI iteration converged after 3 cycles
Entering product-state fixed-point CI iteration
Cycle 0: max grad = 2.785166e-01 ; sigma = 0.000000e+00
Cycle 1: max grad = 4.605856e-05 ; sigma = 5.318129e-02
Cycle 2: max grad = 5.474639e-07 ; sigma = 5.549292e-08
Cycle 3: max grad = 7.759521e-10 ; sigma = 5.826450e-13
Product_state fixed-point CI iteration converged after 3 cycles
LASSCF state-average energy = -3971.89018525224
LASSCF state 0 energy = -3971.89018525224
LASSCF state 1 energy = -3971.89049467745
LASSCF state 2 energy = -3971.8906273398
LASSCF state 3 energy = -3971.89058311557
LASSCF state 4 energy = -3971.89036204604
LASSCF state 5 energy = -3969.48093908276
LASSCF state 6 energy = -3970.98995513759
LASSCF state 7 energy = -3969.569277641
LASSCF state 8 energy = -3971.5111195471
LASSCF state 9 energy = -3969.35032714229
LASSCF state 10 energy = -3971.64263382622
LASSCF state 11 energy = -3969.48199401442
LASSCF state 12 energy = -3970.99011278563
LASSCF state 13 energy = -3969.56971596364
LASSCF state 14 energy = -3971.51146460594
LASSCF state 15 energy = -3969.3507335344
LASSCF state 16 energy = -3971.64312475168
LASSCF state 17 energy = -3969.48258018069
LASSCF state 18 energy = -3970.99014433942
LASSCF state 19 energy = -3969.56980395116
LASSCF state 20 energy = -3971.51153490949
LASSCF state 21 energy = -3969.35081586567
LASSCF state 22 energy = -3971.64322411903
LASSCF state 23 energy = -3969.48269742185
LASSCF state 24 energy = -3970.99004970236
LASSCF state 25 energy = -3969.56954031213
LASSCF state 26 energy = -3971.51132530586
LASSCF state 27 energy = -3969.35056993026
LASSCF state 28 energy = -3971.64292719394
LASSCF state 29 energy = -3969.48234570627
LASSCF state 30 energy = -3969.56892890982
LASSCF state 31 energy = -3971.64224828029
LASSCF state 32 energy = -3969.48152512913
Entering product-state fixed-point CI iteration
Cycle 0: max grad = 2.560975e-06 ; sigma = 0.000000e+00
Cycle 1: max grad = 9.381773e-07 ; sigma = 1.625011e-11
Product_state fixed-point CI iteration converged after 1 cycles
Entering product-state fixed-point CI iteration
Cycle 0: max grad = 2.369173e-06 ; sigma = 0.000000e+00
Cycle 1: max grad = 8.798996e-07 ; sigma = 1.505640e-11
Product_state fixed-point CI iteration converged after 1 cycles
Entering product-state fixed-point CI iteration
Cycle 0: max grad = 2.276478e-06 ; sigma = 0.000000e+00
Cycle 1: max grad = 8.546158e-07 ; sigma = 1.460165e-11
Product_state fixed-point CI iteration converged after 1 cycles
Entering product-state fixed-point CI iteration
Cycle 0: max grad = 2.308122e-06 ; sigma = 0.000000e+00
Cycle 1: max grad = 8.630808e-07 ; sigma = 1.472245e-11
Product_state fixed-point CI iteration converged after 1 cycles
Entering product-state fixed-point CI iteration
Cycle 0: max grad = 2.455328e-06 ; sigma = 0.000000e+00
Cycle 1: max grad = 9.049613e-07 ; sigma = 1.552536e-11
Product_state fixed-point CI iteration converged after 1 cycles
Entering product-state fixed-point CI iteration
Cycle 0: max grad = 8.523432e-10 ; sigma = 0.000000e+00
Cycle 1: max grad = 8.819712e-12 ; sigma = 1.065814e-14
Product_state fixed-point CI iteration converged after 1 cycles
Entering product-state fixed-point CI iteration
Cycle 0: max grad = 9.943609e-07 ; sigma = 0.000000e+00
Cycle 1: max grad = 1.143029e-06 ; sigma = 1.227107e-11
Product_state fixed-point CI iteration converged after 1 cycles
Entering product-state fixed-point CI iteration
Cycle 0: max grad = 8.594107e-07 ; sigma = 0.000000e+00
Cycle 1: max grad = 6.002591e-07 ; sigma = 5.886847e-12
Product_state fixed-point CI iteration converged after 1 cycles
Entering product-state fixed-point CI iteration
Cycle 0: max grad = 1.643296e-06 ; sigma = 0.000000e+00
Cycle 1: max grad = 3.271854e-06 ; sigma = 1.247713e-11
Product_state fixed-point CI iteration converged after 1 cycles
Entering product-state fixed-point CI iteration
Cycle 0: max grad = 4.869203e-07 ; sigma = 0.000000e+00
Cycle 1: max grad = 6.341418e-07 ; sigma = 4.888534e-12
Product_state fixed-point CI iteration converged after 1 cycles
Entering product-state fixed-point CI iteration
Cycle 0: max grad = 1.232657e-06 ; sigma = 0.000000e+00
Cycle 1: max grad = 7.293678e-07 ; sigma = 1.346478e-11
Product_state fixed-point CI iteration converged after 1 cycles
Entering product-state fixed-point CI iteration
Cycle 0: max grad = 7.166699e-10 ; sigma = 0.000000e+00
Cycle 1: max grad = 8.565898e-12 ; sigma = 3.552714e-14
Product_state fixed-point CI iteration converged after 1 cycles
Entering product-state fixed-point CI iteration
Cycle 0: max grad = 1.320258e-06 ; sigma = 0.000000e+00
Cycle 1: max grad = 1.103115e-06 ; sigma = 1.215028e-11
Product_state fixed-point CI iteration converged after 1 cycles
Entering product-state fixed-point CI iteration
Cycle 0: max grad = 6.020661e-07 ; sigma = 0.000000e+00
Cycle 1: max grad = 6.722866e-07 ; sigma = 5.169198e-12
Product_state fixed-point CI iteration converged after 1 cycles
Entering product-state fixed-point CI iteration
Cycle 0: max grad = 1.083318e-06 ; sigma = 0.000000e+00
Cycle 1: max grad = 8.450338e-07 ; sigma = 5.684342e-14
Product_state fixed-point CI iteration converged after 1 cycles
Entering product-state fixed-point CI iteration
Cycle 0: max grad = 5.648514e-07 ; sigma = 0.000000e+00
Cycle 1: max grad = 7.693172e-07 ; sigma = 6.629364e-12
Product_state fixed-point CI iteration converged after 1 cycles
Entering product-state fixed-point CI iteration
Cycle 0: max grad = 1.132493e-06 ; sigma = 0.000000e+00
Cycle 1: max grad = 6.365649e-07 ; sigma = 9.329426e-12
Product_state fixed-point CI iteration converged after 1 cycles
Entering product-state fixed-point CI iteration
Cycle 0: max grad = 6.451020e-10 ; sigma = 0.000000e+00
Cycle 1: max grad = 8.461845e-12 ; sigma = 3.552714e-15
Product_state fixed-point CI iteration converged after 1 cycles
Entering product-state fixed-point CI iteration
Cycle 0: max grad = 1.202589e-06 ; sigma = 0.000000e+00
Cycle 1: max grad = 1.044809e-06 ; sigma = 1.060130e-11
Product_state fixed-point CI iteration converged after 1 cycles
Entering product-state fixed-point CI iteration
Cycle 0: max grad = 5.617916e-07 ; sigma = 0.000000e+00
Cycle 1: max grad = 6.866056e-07 ; sigma = 5.361045e-12
Product_state fixed-point CI iteration converged after 1 cycles
Entering product-state fixed-point CI iteration
Cycle 0: max grad = 1.220893e-06 ; sigma = 0.000000e+00
Cycle 1: max grad = 8.862085e-07 ; sigma = 3.247180e-12
Product_state fixed-point CI iteration converged after 1 cycles
Entering product-state fixed-point CI iteration
Cycle 0: max grad = 5.831845e-07 ; sigma = 0.000000e+00
Cycle 1: max grad = 7.993383e-07 ; sigma = 7.133849e-12
Product_state fixed-point CI iteration converged after 1 cycles
Entering product-state fixed-point CI iteration
Cycle 0: max grad = 1.062282e-06 ; sigma = 0.000000e+00
Cycle 1: max grad = 6.195883e-07 ; sigma = 8.448353e-12
Product_state fixed-point CI iteration converged after 1 cycles
Entering product-state fixed-point CI iteration
Cycle 0: max grad = 6.311465e-10 ; sigma = 0.000000e+00
Cycle 1: max grad = 8.444702e-12 ; sigma = 0.000000e+00
Product_state fixed-point CI iteration converged after 1 cycles
Entering product-state fixed-point CI iteration
Cycle 0: max grad = 2.905984e-07 ; sigma = 0.000000e+00
Cycle 1: max grad = 3.756759e-07 ; sigma = 1.477929e-12
Product_state fixed-point CI iteration converged after 1 cycles
Entering product-state fixed-point CI iteration
Cycle 0: max grad = 6.936838e-07 ; sigma = 0.000000e+00
Cycle 1: max grad = 6.343533e-07 ; sigma = 5.069722e-12
Product_state fixed-point CI iteration converged after 1 cycles
Entering product-state fixed-point CI iteration
Cycle 0: max grad = 1.042747e-06 ; sigma = 0.000000e+00
Cycle 1: max grad = 7.458866e-07 ; sigma = 4.476419e-13
Product_state fixed-point CI iteration converged after 1 cycles
Entering product-state fixed-point CI iteration
Cycle 0: max grad = 5.292846e-07 ; sigma = 0.000000e+00
Cycle 1: max grad = 7.116134e-07 ; sigma = 5.730527e-12
Product_state fixed-point CI iteration converged after 1 cycles
Entering product-state fixed-point CI iteration
Cycle 0: max grad = 1.213587e-06 ; sigma = 0.000000e+00
Cycle 1: max grad = 6.738196e-07 ; sigma = 1.111999e-11
Product_state fixed-point CI iteration converged after 1 cycles
Entering product-state fixed-point CI iteration
Cycle 0: max grad = 6.733790e-10 ; sigma = 0.000000e+00
Cycle 1: max grad = 8.499353e-12 ; sigma = 1.030287e-13
Product_state fixed-point CI iteration converged after 1 cycles
Entering product-state fixed-point CI iteration
Cycle 0: max grad = 1.137854e-06 ; sigma = 0.000000e+00
Cycle 1: max grad = 7.300788e-07 ; sigma = 8.935075e-12
Product_state fixed-point CI iteration converged after 1 cycles
Entering product-state fixed-point CI iteration
Cycle 0: max grad = 4.962140e-07 ; sigma = 0.000000e+00
Cycle 1: max grad = 4.879195e-07 ; sigma = 2.884804e-12
Product_state fixed-point CI iteration converged after 1 cycles
Entering product-state fixed-point CI iteration
Cycle 0: max grad = 7.759522e-10 ; sigma = 0.000000e+00
Cycle 1: max grad = 8.669621e-12 ; sigma = 3.197442e-14
Product_state fixed-point CI iteration converged after 1 cycles
LASSCF state-average energy = -3971.89018525226
LASSCF state 0 energy = -3971.89018525226
LASSCF state 1 energy = -3971.89049467746
LASSCF state 2 energy = -3971.89062733981
LASSCF state 3 energy = -3971.89058311559
LASSCF state 4 energy = -3971.89036204606
LASSCF state 5 energy = -3969.48093908276
LASSCF state 6 energy = -3970.9899551376
LASSCF state 7 energy = -3969.56927764101
LASSCF state 8 energy = -3971.51111954713
LASSCF state 9 energy = -3969.35032714229
LASSCF state 10 energy = -3971.64263382624
LASSCF state 11 energy = -3969.48199401442
LASSCF state 12 energy = -3970.99011278564
LASSCF state 13 energy = -3969.56971596364
LASSCF state 14 energy = -3971.51146460595
LASSCF state 15 energy = -3969.35073353441
LASSCF state 16 energy = -3971.64312475169
LASSCF state 17 energy = -3969.48258018069
LASSCF state 18 energy = -3970.99014433943
LASSCF state 19 energy = -3969.56980395117
LASSCF state 20 energy = -3971.51153490951
LASSCF state 21 energy = -3969.35081586567
LASSCF state 22 energy = -3971.64322411904
LASSCF state 23 energy = -3969.48269742185
LASSCF state 24 energy = -3970.99004970237
LASSCF state 25 energy = -3969.56954031214
LASSCF state 26 energy = -3971.51132530587
LASSCF state 27 energy = -3969.35056993026
LASSCF state 28 energy = -3971.64292719395
LASSCF state 29 energy = -3969.48234570627
LASSCF state 30 energy = -3969.56892890983
LASSCF state 31 energy = -3971.64224828029
LASSCF state 32 energy = -3969.48152512913
LASSI op_o0 memory check: 20816.860032 MB needed of 120081.588224 MB available (128000 MB max)
Symmetry analysis of 33 LAS rootspaces:
 ix            Energy  <S**2>  Neleca  Nelecb  Nelec   Wfnsym
  0  -3971.8901852523   4.750       6       5      11       A
  1  -3971.8904946775  11.750       6       5      11       A
  2  -3971.8906273398  14.750       6       5      11       A
  3  -3971.8905831156  13.750       6       5      11       A
  4  -3971.8903620461   8.750       6       5      11       A
  5  -3969.4809390828   5.750       6       5      11       A
  6  -3970.9899551376   3.750       6       5      11       A
  7  -3969.5692776410   8.750       6       5      11       A
  8  -3971.5111195471   3.750       6       5      11       A
  9  -3969.3503271423   9.750       6       5      11       A
 10  -3971.6426338262   8.750       6       5      11       A
 11  -3969.4819940144  14.750       6       5      11       A
 12  -3970.9901127856   8.750       6       5      11       A
 13  -3969.5697159636  13.750       6       5      11       A
 14  -3971.5114646060   8.750       6       5      11       A
 15  -3969.3507335344  14.750       6       5      11       A
 16  -3971.6431247517  13.750       6       5      11       A
 17  -3969.4825801807  19.750       6       5      11       A
 18  -3970.9901443394   9.750       6       5      11       A
 19  -3969.5698039512  14.750       6       5      11       A
 20  -3971.5115349095   9.750       6       5      11       A
 21  -3969.3508158657  15.750       6       5      11       A
 22  -3971.6432241190  14.750       6       5      11       A
 23  -3969.4826974219  20.750       6       5      11       A
 24  -3970.9900497024   6.750       6       5      11       A
 25  -3969.5695403121  11.750       6       5      11       A
 26  -3971.5113253059   6.750       6       5      11       A
 27  -3969.3505699303  12.750       6       5      11       A
 28  -3971.6429271939  11.750       6       5      11       A
 29  -3969.4823457063  17.750       6       5      11       A
 30  -3969.5689289098   4.750       6       5      11       A
 31  -3971.6422482803   4.750       6       5      11       A
 32  -3969.4815251291  10.750       6       5      11       A
Build + diag H matrix LASSI symmetry block 0
['neleca', 'nelecb', 'irrep'] = (6, 5, 0)
(33 rootspaces; 33 states)
LASSI eigenvalues (33 total):
 ix            Energy  <S**2>  Neleca  Nelecb  Wfnsym
  0  -3971.8911476922  24.750       6       5       A
  1  -3971.8908862660  15.750       6       5       A
  2  -3971.8906837568   8.749       6       5       A
  3  -3971.8905393466   3.748       6       5       A
  4  -3971.8904507980   0.753       6       5       A
  5  -3971.6441367612  24.749       6       5       A
  6  -3971.6432681607  15.749       6       5       A
  7  -3971.6426023252   8.749       6       5       A
  8  -3971.6421322481   3.749       6       5       A
  9  -3971.6418451797   0.754       6       5       A
 10  -3971.5118251727  15.750       6       5       A
 11  -3971.5112306386   8.750       6       5       A
 12  -3971.5108107544   3.750       6       5       A
 13  -3971.5105592297   0.750       6       5       A
 14  -3970.9903001302  15.750       6       5       A
 15  -3970.9900530959   8.750       6       5       A
 16  -3970.9898766972   3.750       6       5       A
 17  -3970.9897709031   0.750       6       5       A
 18  -3969.5706829264  24.750       6       5       A
 19  -3969.5698906295  15.750       6       5       A
 20  -3969.5692768756   8.750       6       5       A
 21  -3969.5688398407   3.750       6       5       A
 22  -3969.5685763156   0.750       6       5       A
 23  -3969.4844559964  35.750       6       5       A
 24  -3969.4831661758  24.750       6       5       A
 25  -3969.4821109565  15.750       6       5       A
 26  -3969.4812902848   8.750       6       5       A
 27  -3969.4807041211   3.750       6       5       A
 28  -3969.4803523450   0.750       6       5       A
 29  -3969.3515544937  24.750       6       5       A
 30  -3969.3508135578  15.750       6       5       A
 31  -3969.3502441855   8.750       6       5       A
 32  -3969.3498338607   3.751       6       5       A
Natural-orbital analysis for state(s) [0, 1, 2, 3, 4]
LASSI op_o0 memory check: 20816.860032 MB needed of 120081.641472 MB available (128000 MB max)
Delocalized natural orbitals do not reflect LAS fragmentation
Natural occ [1.98748837 1.01185745 1.00298509 0.99789036 0.99773246 0.99771838
 0.99649099 0.99609536 0.99096443 0.98200473 0.01192967 0.00422582
 0.00406613 0.00389319 0.00347511 0.00228928 0.00228214 0.00226691
 0.00223569 0.00210843]
Natural orbital (expansion on AOs) in CAS space
               #1        #2        #3        #4        #5       
0 O 1s          -0.00011  -0.00023   0.00029  -0.00003  -0.00005
0 O 2s           0.00163   0.00124   0.00201  -0.00063   0.00082
0 O 3s           0.00058   0.00046   0.00050  -0.00019   0.00025
0 O 4s           0.00475   0.00482  -0.00214  -0.00025   0.00224
0 O 2px          0.00481   0.00007   0.00581  -0.00078   0.00109
0 O 2py          0.00049  -0.00141   0.00140  -0.00027   0.00032
0 O 2pz          0.00209   0.00121  -0.00231   0.00030  -0.00042
0 O 3px          0.00575   0.00030   0.00698  -0.00088   0.00139
0 O 3py          0.00041  -0.00149   0.00138  -0.00036   0.00030
0 O 3pz          0.00276   0.00136  -0.00276   0.00034  -0.00056
0 O 4px          0.00796  -0.00016   0.00723  -0.00116   0.00130
0 O 4py          0.00005  -0.00310   0.00276   0.00017   0.00135
0 O 4pz          0.00389   0.00184  -0.00191   0.00029  -0.00093
0 O 3dxy         0.00012   0.00001   0.00002   0.00001  -0.00004
0 O 3dyz         0.00007   0.00002   0.00006   0.00000   0.00002
0 O 3dz^2       -0.00003   0.00002  -0.00007  -0.00001   0.00001
0 O 3dxz        -0.00004   0.00002   0.00002   0.00000  -0.00001
0 O 3dx2-y2      0.00003   0.00003  -0.00006  -0.00000   0.00002
0 O 4dxy         0.00025  -0.00015  -0.00020   0.00013   0.00001
0 O 4dyz         0.00011   0.00016   0.00024  -0.00002  -0.00013
0 O 4dz^2       -0.00016  -0.00012  -0.00016  -0.00003   0.00007
0 O 4dxz         0.00016  -0.00002   0.00039  -0.00007   0.00005
0 O 4dx2-y2     -0.00017  -0.00000  -0.00016   0.00003  -0.00007
0 O 4f-3         0.00003   0.00003  -0.00000   0.00001  -0.00000
0 O 4f-2         0.00003   0.00000  -0.00006  -0.00000  -0.00002
0 O 4f-1        -0.00001   0.00003   0.00005   0.00000   0.00001
0 O 4f+0         0.00001   0.00000   0.00006   0.00000   0.00000
0 O 4f+1        -0.00001   0.00000  -0.00003   0.00000  -0.00001
0 O 4f+2         0.00001  -0.00001   0.00010  -0.00001   0.00002
0 O 4f+3         0.00003  -0.00001  -0.00006   0.00001  -0.00003
1 O 1s           0.00030   0.00007   0.00020   0.00000  -0.00002
1 O 2s           0.00702  -0.00794  -0.00205   0.00013  -0.00033
1 O 3s           0.00198  -0.00229  -0.00069   0.00005  -0.00007
1 O 4s           0.01139  -0.01599  -0.00683   0.00002  -0.00109
1 O 2px         -0.00510  -0.00799  -0.00375  -0.00005  -0.00039
1 O 2py         -0.00720  -0.00498   0.00675  -0.00032  -0.00065
1 O 2pz         -0.00503   0.00900  -0.00884   0.00034   0.00047
1 O 3px         -0.00575  -0.01050  -0.00471  -0.00016  -0.00058
1 O 3py         -0.00807  -0.00640   0.00838  -0.00043  -0.00085
1 O 3pz         -0.00612   0.01188  -0.01091   0.00038   0.00060
1 O 4px         -0.01090  -0.01160  -0.00434   0.00030   0.00010
1 O 4py         -0.01197  -0.00828   0.00596  -0.00026  -0.00105
1 O 4pz         -0.00721   0.01321  -0.01346   0.00061   0.00013
1 O 3dxy         0.00024   0.00000  -0.00045   0.00000   0.00001
1 O 3dyz        -0.00086  -0.00008   0.00020  -0.00001   0.00000
1 O 3dz^2       -0.00066   0.00024  -0.00053   0.00001   0.00001
1 O 3dxz         0.00003  -0.00041  -0.00011  -0.00000  -0.00001
1 O 3dx2-y2      0.00051   0.00031   0.00013  -0.00000   0.00000
1 O 4dxy         0.00038  -0.00007  -0.00116   0.00007   0.00015
1 O 4dyz        -0.00243  -0.00024   0.00052  -0.00000  -0.00006
1 O 4dz^2       -0.00268   0.00059  -0.00187  -0.00002   0.00007
1 O 4dxz        -0.00054  -0.00104  -0.00002   0.00005  -0.00013
1 O 4dx2-y2      0.00214   0.00105   0.00087   0.00000   0.00010
1 O 4f-3         0.00024   0.00013   0.00005   0.00000   0.00002
1 O 4f-2        -0.00012  -0.00017   0.00010  -0.00000  -0.00001
1 O 4f-1         0.00007   0.00017  -0.00031   0.00000   0.00002
1 O 4f+0         0.00040  -0.00003   0.00008   0.00000   0.00001
1 O 4f+1        -0.00010   0.00013   0.00004  -0.00001  -0.00001
1 O 4f+2         0.00014  -0.00008  -0.00016   0.00001   0.00001
1 O 4f+3        -0.00006   0.00003   0.00023  -0.00001  -0.00002
2 C 1s          -0.00025   0.00010   0.00045   0.00001  -0.00010
2 C 2s          -0.00604   0.00069   0.00503  -0.00002  -0.00048
2 C 3s          -0.00886  -0.00120   0.00789   0.00025   0.00182
2 C 2px         -0.01692  -0.00081  -0.00296  -0.00028   0.00024
2 C 2py          0.00313  -0.00381  -0.00464   0.00038  -0.00047
2 C 2pz         -0.00530  -0.00074  -0.00949  -0.00014   0.00070
2 C 3px         -0.01327   0.00060  -0.00432  -0.00002   0.00103
2 C 3py         -0.00033  -0.00368  -0.00181  -0.00002  -0.00102
2 C 3pz         -0.00491  -0.00124  -0.00512  -0.00041  -0.00025
2 C 3dxy         0.00216   0.00013   0.00118  -0.00009   0.00019
2 C 3dyz         0.00083  -0.00031   0.00133   0.00002  -0.00003
2 C 3dz^2        0.00094  -0.00130   0.00107  -0.00007  -0.00000
2 C 3dxz        -0.00032   0.00100  -0.00028   0.00004  -0.00010
2 C 3dx2-y2     -0.00061  -0.00204   0.00034  -0.00006  -0.00003
3 H 1s           0.00144  -0.00453   0.00233  -0.00033   0.00011
3 H 2s           0.00139  -0.00488   0.00324  -0.00023   0.00086
3 H 2px         -0.00050   0.00001   0.00004  -0.00002  -0.00000
3 H 2py          0.00000  -0.00012  -0.00008   0.00003   0.00003
3 H 2pz         -0.00000  -0.00008  -0.00027   0.00001   0.00001
4 O 1s           0.00022   0.00010  -0.00005  -0.00001   0.00003
4 O 2s          -0.00066  -0.00562  -0.01099  -0.03432   0.00391
4 O 3s          -0.00032  -0.00162  -0.00300  -0.00961   0.00121
4 O 4s          -0.00335  -0.00879  -0.01655  -0.05148   0.00638
4 O 2px          0.00051  -0.00862   0.00443  -0.00087   0.00510
4 O 2py          0.00085  -0.00264   0.01750   0.03934  -0.00408
4 O 2pz         -0.00020  -0.00673  -0.01072  -0.02736  -0.01634
4 O 3px          0.00073  -0.01068   0.00571   0.00011   0.00606
4 O 3py          0.00080  -0.00340   0.02284   0.05055  -0.00498
4 O 3pz         -0.00032  -0.00885  -0.01436  -0.03590  -0.02118
4 O 4px         -0.00074  -0.00935   0.00731   0.00511   0.00535
4 O 4py          0.00444  -0.00301   0.02099   0.04791  -0.00510
4 O 4pz         -0.00159  -0.00844  -0.01237  -0.03588  -0.01856
4 O 3dxy         0.00002  -0.00032  -0.00018  -0.00096   0.00042
4 O 3dyz        -0.00002  -0.00017  -0.00023  -0.00063  -0.00031
4 O 3dz^2        0.00001  -0.00002  -0.00010  -0.00041   0.00046
4 O 3dxz        -0.00004   0.00035   0.00004   0.00045   0.00022
4 O 3dx2-y2     -0.00007   0.00034  -0.00039  -0.00046   0.00011
4 O 4dxy        -0.00005  -0.00036  -0.00079  -0.00210   0.00095
4 O 4dyz         0.00001  -0.00015  -0.00041  -0.00087  -0.00124
4 O 4dz^2       -0.00016  -0.00003  -0.00013  -0.00085   0.00128
4 O 4dxz         0.00005   0.00119   0.00042   0.00156   0.00112
4 O 4dx2-y2      0.00002   0.00127  -0.00128  -0.00166   0.00045
4 O 4f-3        -0.00003   0.00012   0.00013   0.00048  -0.00020
4 O 4f-2         0.00002  -0.00004   0.00010   0.00027   0.00029
4 O 4f-1         0.00000  -0.00009  -0.00015  -0.00037  -0.00018
4 O 4f+0         0.00001   0.00012   0.00000  -0.00001   0.00026
4 O 4f+1        -0.00001   0.00015  -0.00001   0.00011  -0.00016
4 O 4f+2         0.00002  -0.00007  -0.00018  -0.00050  -0.00014
4 O 4f+3         0.00005  -0.00021   0.00024   0.00041  -0.00002
5 O 1s          -0.00013   0.00015  -0.00012  -0.00029  -0.00021
5 O 2s           0.00062   0.00092   0.00157   0.00332   0.00129
5 O 3s           0.00023   0.00022   0.00047   0.00108   0.00048
5 O 4s           0.00391   0.00015   0.00431   0.00425   0.00299
5 O 2px          0.00012   0.00083   0.00176   0.00331   0.00377
5 O 2py         -0.00132   0.00188   0.00021   0.00115   0.00101
5 O 2pz          0.00065   0.00313  -0.00216  -0.00396   0.00301
5 O 3px          0.00032   0.00110   0.00178   0.00378   0.00456
5 O 3py         -0.00167   0.00236  -0.00036   0.00080   0.00127
5 O 3pz          0.00054   0.00384  -0.00234  -0.00432   0.00368
5 O 4px          0.00049   0.00125   0.00339   0.00384   0.00552
5 O 4py         -0.00210   0.00253   0.00147   0.00258   0.00182
5 O 4pz          0.00219   0.00519  -0.00320  -0.00603   0.00448
5 O 3dxy        -0.00000  -0.00002   0.00002   0.00003   0.00003
5 O 3dyz         0.00002   0.00005   0.00003   0.00009  -0.00000
5 O 3dz^2       -0.00002  -0.00001  -0.00002   0.00003   0.00007
5 O 3dxz         0.00002  -0.00002   0.00005   0.00002  -0.00004
5 O 3dx2-y2      0.00000   0.00004  -0.00003   0.00003  -0.00002
5 O 4dxy         0.00002  -0.00007  -0.00012  -0.00080  -0.00014
5 O 4dyz         0.00016   0.00024   0.00021   0.00070   0.00012
5 O 4dz^2        0.00004   0.00016  -0.00030  -0.00039   0.00012
5 O 4dxz         0.00001   0.00006  -0.00004   0.00020  -0.00008
5 O 4dx2-y2      0.00029   0.00029   0.00041   0.00068   0.00040
5 O 4f-3        -0.00002  -0.00002  -0.00003  -0.00011  -0.00002
5 O 4f-2         0.00002   0.00005   0.00001   0.00010  -0.00001
5 O 4f-1        -0.00000  -0.00002   0.00000  -0.00001   0.00000
5 O 4f+0         0.00001   0.00001   0.00005   0.00006   0.00005
5 O 4f+1        -0.00001  -0.00003  -0.00004  -0.00010  -0.00000
5 O 4f+2         0.00001   0.00001  -0.00003  -0.00009  -0.00004
5 O 4f+3         0.00002   0.00003   0.00006   0.00017   0.00004
6 C 1s           0.00007   0.00041  -0.00006   0.00064  -0.00000
6 C 2s           0.00002   0.00467   0.00127   0.01020  -0.00394
6 C 3s          -0.00351   0.00109  -0.00063   0.00518  -0.00410
6 C 2px          0.00056   0.00336   0.00595   0.01910  -0.00834
6 C 2py          0.00048  -0.00912  -0.00057  -0.01240  -0.00146
6 C 2pz          0.00022  -0.00342   0.00269   0.00310  -0.00880
6 C 3px         -0.00100  -0.00094   0.00433   0.00640  -0.00127
6 C 3py          0.00240  -0.00296  -0.00313  -0.01060  -0.00201
6 C 3pz         -0.00070  -0.00203   0.00265   0.00637  -0.00503
6 C 3dxy         0.00035  -0.00129   0.00081   0.00022   0.00000
6 C 3dyz        -0.00011   0.00102   0.00098   0.00335   0.00116
6 C 3dz^2        0.00019  -0.00007  -0.00074  -0.00198   0.00046
6 C 3dxz         0.00014  -0.00105  -0.00142  -0.00338  -0.00282
6 C 3dx2-y2     -0.00017  -0.00047   0.00292   0.00705  -0.00026
7 H 1s           0.00019  -0.00151  -0.00719  -0.01788  -0.00099
7 H 2s          -0.00131  -0.00094  -0.00541  -0.01317  -0.00218
7 H 2px          0.00011   0.00012   0.00004   0.00035  -0.00023
7 H 2py          0.00003  -0.00021   0.00017  -0.00011   0.00001
7 H 2pz         -0.00005  -0.00009  -0.00001  -0.00006  -0.00017
8 O 1s          -0.00007  -0.00037  -0.00025  -0.00028  -0.00002
8 O 2s          -0.00868  -0.00738   0.00073   0.00339  -0.00047
8 O 3s          -0.00262  -0.00194   0.00029   0.00107  -0.00015
8 O 4s          -0.02100  -0.01056   0.00110   0.00303  -0.00136
8 O 2px          0.00507   0.00743   0.00772   0.00566   0.00458
8 O 2py          0.00915  -0.01184  -0.00307   0.00013  -0.00358
8 O 2pz         -0.00537   0.00771  -0.00811   0.00233  -0.00610
8 O 3px          0.00594   0.00980   0.00936   0.00631   0.00554
8 O 3py          0.01048  -0.01540  -0.00373   0.00060  -0.00444
8 O 3pz         -0.00599   0.01052  -0.01040   0.00231  -0.00768
8 O 4px          0.00472   0.00984   0.00869   0.00686   0.00676
8 O 4py          0.01333  -0.01643  -0.00541  -0.00163  -0.00530
8 O 4pz         -0.01101   0.00865  -0.01242   0.00384  -0.00820
8 O 3dxy         0.00032  -0.00055  -0.00031   0.00001  -0.00002
8 O 3dyz         0.00043  -0.00026  -0.00007   0.00007   0.00002
8 O 3dz^2       -0.00048   0.00005  -0.00063   0.00003   0.00000
8 O 3dxz         0.00046   0.00028  -0.00041  -0.00004   0.00003
8 O 3dx2-y2      0.00097   0.00017   0.00035   0.00003  -0.00000
8 O 4dxy         0.00043  -0.00171  -0.00087   0.00107   0.00011
8 O 4dyz         0.00193  -0.00110  -0.00024   0.00021  -0.00016
8 O 4dz^2       -0.00094   0.00041  -0.00257  -0.00033   0.00015
8 O 4dxz         0.00101   0.00078  -0.00195  -0.00070  -0.00002
8 O 4dx2-y2      0.00252   0.00069   0.00109  -0.00050   0.00011
8 O 4f-3         0.00054   0.00006   0.00021   0.00020   0.00002
8 O 4f-2         0.00009   0.00026  -0.00013   0.00003   0.00000
8 O 4f-1        -0.00029   0.00018  -0.00032  -0.00011   0.00000
8 O 4f+0        -0.00001   0.00003   0.00022   0.00000  -0.00001
8 O 4f+1        -0.00026  -0.00002   0.00005  -0.00012  -0.00001
8 O 4f+2        -0.00053   0.00020  -0.00007  -0.00007   0.00002
8 O 4f+3        -0.00015   0.00031   0.00018  -0.00017   0.00002
9 O 1s          -0.00013   0.00015  -0.00012   0.00029  -0.00021
9 O 2s           0.00062   0.00092   0.00157  -0.00332   0.00129
9 O 3s           0.00023   0.00022   0.00047  -0.00108   0.00048
9 O 4s           0.00391   0.00015   0.00431  -0.00425   0.00299
9 O 2px         -0.00012   0.00002   0.00229  -0.00431   0.00284
9 O 2py         -0.00108   0.00270  -0.00032  -0.00015   0.00194
9 O 2pz         -0.00099  -0.00260   0.00157  -0.00306  -0.00353
9 O 3px          0.00010   0.00010   0.00234  -0.00484   0.00343
9 O 3py         -0.00145   0.00335  -0.00091   0.00026   0.00240
9 O 3pz         -0.00104  -0.00320   0.00158  -0.00318  -0.00429
9 O 4px         -0.00020  -0.00011   0.00419  -0.00543   0.00415
9 O 4py         -0.00140   0.00389   0.00067  -0.00098   0.00318
9 O 4pz         -0.00273  -0.00444   0.00243  -0.00522  -0.00514
9 O 3dxy        -0.00000  -0.00004   0.00003  -0.00001   0.00001
9 O 3dyz        -0.00001  -0.00004  -0.00002   0.00010  -0.00003
9 O 3dz^2       -0.00001  -0.00003  -0.00000   0.00001   0.00003
9 O 3dxz        -0.00002  -0.00001  -0.00004   0.00001   0.00008
9 O 3dx2-y2     -0.00001   0.00003  -0.00005   0.00000  -0.00001
9 O 4dxy        -0.00002  -0.00013  -0.00014   0.00082  -0.00020
9 O 4dyz        -0.00024  -0.00034  -0.00011   0.00040  -0.00021
9 O 4dz^2       -0.00004   0.00005  -0.00032   0.00042   0.00002
9 O 4dxz        -0.00009  -0.00010  -0.00027   0.00080  -0.00004
9 O 4dx2-y2      0.00022   0.00018   0.00033  -0.00039   0.00036
9 O 4f-3        -0.00002  -0.00003  -0.00003   0.00014  -0.00003
9 O 4f-2        -0.00000  -0.00003   0.00001   0.00004   0.00002
9 O 4f-1         0.00002   0.00001   0.00002  -0.00003   0.00002
9 O 4f+0         0.00000   0.00001   0.00000  -0.00004  -0.00003
9 O 4f+1        -0.00001  -0.00004  -0.00006   0.00015  -0.00004
9 O 4f+2        -0.00003  -0.00005  -0.00002   0.00006   0.00001
9 O 4f+3         0.00001   0.00001   0.00006  -0.00015   0.00005
10 O 1s          0.00022   0.00010  -0.00005   0.00001   0.00003
10 O 2s         -0.00066  -0.00562  -0.01098   0.03432   0.00391
10 O 3s         -0.00032  -0.00162  -0.00300   0.00961   0.00121
10 O 4s         -0.00335  -0.00879  -0.01655   0.05148   0.00638
10 O 2px         0.00058  -0.00656   0.00786  -0.00815   0.00920
10 O 2py         0.00078  -0.00470   0.01406  -0.03032  -0.00818
10 O 2pz         0.00028   0.00784   0.01345  -0.03621   0.01257
10 O 3px         0.00082  -0.00798   0.01028  -0.01185   0.01141
10 O 3py         0.00070  -0.00609   0.01826  -0.03882  -0.01032
10 O 3pz         0.00032   0.01015   0.01792  -0.04688   0.01653
10 O 4px        -0.00011  -0.00680   0.01121  -0.01654   0.01001
10 O 4py         0.00380  -0.00555   0.01709  -0.03648  -0.00976
10 O 4pz         0.00288   0.00951   0.01514  -0.04478   0.01427
10 O 3dxy        0.00001  -0.00016  -0.00009   0.00056   0.00046
10 O 3dyz        0.00003   0.00010   0.00038  -0.00101  -0.00011
10 O 3dz^2       0.00000   0.00026   0.00006  -0.00028   0.00054
10 O 3dxz        0.00007  -0.00044   0.00001   0.00059   0.00014
10 O 3dx2-y2    -0.00004   0.00026  -0.00031   0.00037   0.00013
10 O 4dxy       -0.00002   0.00001  -0.00050   0.00122   0.00131
10 O 4dyz        0.00006  -0.00025   0.00089  -0.00188  -0.00003
10 O 4dz^2      -0.00010   0.00060   0.00037  -0.00067   0.00190
10 O 4dxz       -0.00013  -0.00140  -0.00020   0.00162  -0.00010
10 O 4dx2-y2     0.00001   0.00089  -0.00118   0.00172   0.00045
10 O 4f-3       -0.00002   0.00008   0.00003  -0.00018  -0.00028
10 O 4f-2       -0.00002   0.00001  -0.00024   0.00063  -0.00007
10 O 4f-1        0.00003  -0.00003  -0.00010   0.00026   0.00004
10 O 4f+0        0.00001  -0.00022  -0.00004   0.00015  -0.00010
10 O 4f+1       -0.00001  -0.00002  -0.00016   0.00036  -0.00040
10 O 4f+2       -0.00004   0.00018   0.00004  -0.00027  -0.00009
10 O 4f+3        0.00003  -0.00016   0.00022  -0.00039  -0.00008
11 C 1s          0.00007   0.00041  -0.00006  -0.00064  -0.00000
11 C 2s          0.00002   0.00467   0.00127  -0.01020  -0.00394
11 C 3s         -0.00351   0.00109  -0.00063  -0.00518  -0.00410
11 C 2px         0.00050   0.00381   0.00496  -0.01704  -0.00567
11 C 2py         0.00054  -0.00957   0.00041   0.01034  -0.00413
11 C 2pz        -0.00023  -0.00025  -0.00426   0.01145   0.00999
11 C 3px        -0.00068  -0.00046   0.00331  -0.00400   0.00007
11 C 3py         0.00207  -0.00343  -0.00212   0.00821  -0.00335
11 C 3pz         0.00158   0.00132  -0.00448   0.01051   0.00444
11 C 3dxy        0.00036  -0.00171   0.00024   0.00124  -0.00106
11 C 3dyz       -0.00004  -0.00023  -0.00131   0.00347  -0.00076
11 C 3dz^2       0.00021  -0.00079  -0.00173   0.00450  -0.00138
11 C 3dxz        0.00012   0.00051   0.00013   0.00035   0.00243
11 C 3dx2-y2    -0.00017  -0.00043   0.00282  -0.00652   0.00021
12 H 1s          0.00019  -0.00151  -0.00718   0.01788  -0.00099
12 H 2s         -0.00131  -0.00094  -0.00541   0.01318  -0.00218
12 H 2px         0.00012   0.00013   0.00005  -0.00035  -0.00017
12 H 2py         0.00002  -0.00022   0.00016   0.00011  -0.00004
12 H 2pz         0.00002  -0.00001   0.00005   0.00007   0.00022
13 O 1s          0.00030   0.00007   0.00020  -0.00000  -0.00002
13 O 2s          0.00702  -0.00794  -0.00205  -0.00014  -0.00033
13 O 3s          0.00198  -0.00229  -0.00069  -0.00005  -0.00007
13 O 4s          0.01138  -0.01599  -0.00683  -0.00002  -0.00109
13 O 2px        -0.00381  -0.01032  -0.00093   0.00015  -0.00053
13 O 2py        -0.00849  -0.00264   0.00394   0.00022  -0.00052
13 O 2pz         0.00407  -0.00749   0.01102   0.00038  -0.00051
13 O 3px        -0.00417  -0.01358  -0.00123   0.00027  -0.00076
13 O 3py        -0.00965  -0.00332   0.00490   0.00032  -0.00068
13 O 3pz         0.00502  -0.00984   0.01364   0.00043  -0.00063
13 O 4px        -0.00898  -0.01507  -0.00027  -0.00012   0.00002
13 O 4py        -0.01389  -0.00480   0.00189   0.00007  -0.00097
13 O 4pz         0.00636  -0.01128   0.01523   0.00072  -0.00043
13 O 3dxy        0.00053  -0.00011  -0.00043  -0.00000   0.00000
13 O 3dyz        0.00078  -0.00008   0.00016  -0.00000  -0.00001
13 O 3dz^2      -0.00016   0.00004  -0.00049  -0.00001   0.00001
13 O 3dxz       -0.00030   0.00036  -0.00031  -0.00001   0.00002
13 O 3dx2-y2     0.00069   0.00042   0.00009  -0.00000   0.00001
13 O 4dxy        0.00117  -0.00034  -0.00096  -0.00008   0.00011
13 O 4dyz        0.00252  -0.00021   0.00045   0.00001  -0.00003
13 O 4dz^2      -0.00131   0.00012  -0.00154   0.00000   0.00001
13 O 4dxz       -0.00095   0.00082  -0.00139   0.00003   0.00016
13 O 4dx2-y2     0.00278   0.00132   0.00067   0.00001   0.00015
13 O 4f-3        0.00032   0.00012  -0.00004  -0.00000   0.00002
13 O 4f-2        0.00019   0.00008  -0.00026  -0.00001   0.00002
13 O 4f-1        0.00024   0.00002  -0.00014  -0.00000   0.00001
13 O 4f+0       -0.00016   0.00000  -0.00021  -0.00000   0.00001
13 O 4f+1       -0.00020   0.00014  -0.00018   0.00000  -0.00000
13 O 4f+2       -0.00002   0.00021  -0.00005   0.00000   0.00001
13 O 4f+3       -0.00003   0.00013   0.00018   0.00001  -0.00001
14 O 1s         -0.00011  -0.00023   0.00029   0.00003  -0.00005
14 O 2s          0.00163   0.00124   0.00201   0.00063   0.00083
14 O 3s          0.00058   0.00046   0.00050   0.00019   0.00025
14 O 4s          0.00476   0.00482  -0.00214   0.00025   0.00224
14 O 2px         0.00408  -0.00031   0.00627   0.00084   0.00117
14 O 2py         0.00122  -0.00102   0.00094   0.00021   0.00024
14 O 2pz        -0.00311  -0.00152   0.00093   0.00014   0.00018
14 O 3px         0.00479  -0.00014   0.00751   0.00095   0.00150
14 O 3py         0.00137  -0.00105   0.00085   0.00028   0.00019
14 O 3pz        -0.00400  -0.00174   0.00102   0.00017   0.00023
14 O 4px         0.00660  -0.00078   0.00758   0.00119   0.00156
14 O 4py         0.00141  -0.00248   0.00241  -0.00020   0.00109
14 O 4pz        -0.00575  -0.00250   0.00055  -0.00010   0.00087
14 O 3dxy        0.00009   0.00001   0.00002  -0.00001  -0.00005
14 O 3dyz       -0.00008  -0.00004  -0.00001  -0.00000  -0.00002
14 O 3dz^2      -0.00008   0.00002  -0.00008   0.00001   0.00000
14 O 3dxz        0.00003  -0.00001  -0.00003   0.00000  -0.00001
14 O 3dx2-y2     0.00003   0.00002  -0.00008   0.00000   0.00002
14 O 4dxy        0.00027  -0.00017  -0.00013  -0.00011   0.00005
14 O 4dyz       -0.00006  -0.00004  -0.00007  -0.00000   0.00009
14 O 4dz^2      -0.00013  -0.00016  -0.00003   0.00006   0.00013
14 O 4dxz       -0.00010  -0.00009  -0.00042  -0.00007   0.00002
14 O 4dx2-y2    -0.00023  -0.00004  -0.00032  -0.00006  -0.00004
14 O 4f-3        0.00002   0.00002   0.00005  -0.00000   0.00001
14 O 4f-2       -0.00004   0.00000   0.00011   0.00000   0.00003
14 O 4f-1        0.00001   0.00002   0.00007  -0.00000   0.00000
14 O 4f+0        0.00001   0.00001  -0.00001   0.00000   0.00000
14 O 4f+1       -0.00003  -0.00000   0.00002   0.00000   0.00001
14 O 4f+2       -0.00002   0.00003  -0.00004  -0.00001  -0.00001
14 O 4f+3        0.00002  -0.00000  -0.00005  -0.00002  -0.00003
15 C 1s         -0.00025   0.00010   0.00045  -0.00001  -0.00010
15 C 2s         -0.00604   0.00069   0.00503   0.00002  -0.00048
15 C 3s         -0.00886  -0.00120   0.00789  -0.00025   0.00182
15 C 2px        -0.01470  -0.00072  -0.00044   0.00022   0.00002
15 C 2py         0.00091  -0.00390  -0.00716  -0.00032  -0.00025
15 C 2pz         0.01036  -0.00013   0.00830  -0.00031  -0.00084
15 C 3px        -0.01143   0.00077  -0.00282  -0.00009   0.00102
15 C 3py        -0.00217  -0.00385  -0.00330   0.00013  -0.00101
15 C 3pz         0.00805  -0.00002   0.00541  -0.00038  -0.00033
15 C 3dxy        0.00159   0.00061   0.00055   0.00007   0.00015
15 C 3dyz       -0.00143   0.00123  -0.00190  -0.00005  -0.00000
15 C 3dz^2      -0.00005  -0.00045  -0.00002   0.00004  -0.00006
15 C 3dxz        0.00129  -0.00076   0.00075   0.00007   0.00014
15 C 3dx2-y2    -0.00070  -0.00207   0.00002   0.00007   0.00001
16 H 1s          0.00144  -0.00453   0.00233   0.00033   0.00011
16 H 2s          0.00139  -0.00488   0.00324   0.00023   0.00086
16 H 2px        -0.00048   0.00003   0.00011   0.00002  -0.00000
16 H 2py        -0.00001  -0.00013  -0.00014  -0.00003   0.00003
16 H 2pz         0.00014   0.00004   0.00022  -0.00000  -0.00000
17 Fe 1s         0.00007  -0.00021   0.00070  -0.00000  -0.00031
17 Fe 2s         0.00025  -0.00062   0.00208  -0.00000  -0.00092
17 Fe 3s        -0.03015  -0.00249   0.00995  -0.00000  -0.00519
17 Fe 4s        -0.02007  -0.04364   0.02852  -0.00000   0.00090
17 Fe 5s        -0.01010  -0.00436  -0.00562   0.00000   0.00232
17 Fe 6s         0.00442  -0.00020   0.00447  -0.00000  -0.00086
17 Fe 7s        -0.03691  -0.00980  -0.02811   0.00000  -0.01842
17 Fe 2px       -0.00096  -0.00022  -0.00006   0.00000  -0.00003
17 Fe 2py        0.00024  -0.00064   0.00031  -0.00000  -0.00032
17 Fe 2pz        0.00017  -0.00006   0.00005   0.00002  -0.00004
17 Fe 3px       -0.02684  -0.00615  -0.00133   0.00010  -0.00097
17 Fe 3py       -0.00103  -0.01712   0.00326  -0.00010  -0.00656
17 Fe 3pz        0.00366  -0.00156   0.00065   0.00073  -0.00079
17 Fe 4px       -0.09694  -0.02932  -0.00443  -0.00142   0.00901
17 Fe 4py        0.06948  -0.02318   0.07202   0.00141  -0.01678
17 Fe 4pz        0.02360   0.00087   0.01084  -0.01002  -0.00366
17 Fe 5px        0.06176   0.03500   0.00441   0.00100  -0.00578
17 Fe 5py       -0.06387   0.06542  -0.05794  -0.00099   0.01668
17 Fe 5pz       -0.01782   0.00431  -0.00884   0.00704   0.00318
17 Fe 6px       -0.00015   0.00026  -0.00066  -0.00004   0.00005
17 Fe 6py        0.00249   0.00287   0.00201   0.00004  -0.00009
17 Fe 6pz        0.00037   0.00037   0.00038  -0.00027  -0.00002
17 Fe 7px       -0.03375  -0.00375  -0.00074  -0.00012  -0.00276
17 Fe 7py       -0.00809  -0.01073  -0.01219   0.00012  -0.01036
17 Fe 7pz        0.00364  -0.00099  -0.00162  -0.00082  -0.00108
17 Fe 3dxy      -0.68845  -0.29158   0.34849   0.00013   0.00080
17 Fe 3dyz       0.07361  -0.10435  -0.16408  -0.00014  -0.00009
17 Fe 3dz^2      0.42230   0.29437   0.48816   0.00022   0.00053
17 Fe 3dxz       0.08631  -0.03986   0.18872  -0.00099   0.00042
17 Fe 3dx2-y2   -0.56382   0.50838  -0.08676  -0.00016  -0.00118
17 Fe 4dxy      -0.01022   0.00950  -0.01155   0.00005   0.00008
17 Fe 4dyz       0.00063   0.00483   0.00628   0.00011   0.00013
17 Fe 4dz^2      0.00789  -0.01356  -0.01861   0.00009  -0.00034
17 Fe 4dxz       0.00165   0.00070  -0.00665  -0.00025  -0.00003
17 Fe 4dx2-y2   -0.00802  -0.01951   0.00129  -0.00002  -0.00034
17 Fe 5dxy      -0.00657   0.00118  -0.00169  -0.00000   0.00001
17 Fe 5dyz       0.00050   0.00082   0.00111  -0.00005  -0.00002
17 Fe 5dz^2      0.00475  -0.00236  -0.00335  -0.00000   0.00001
17 Fe 5dxz       0.00098  -0.00004  -0.00111  -0.00004  -0.00001
17 Fe 5dx2-y2   -0.00522  -0.00277  -0.00002  -0.00001   0.00010
17 Fe 6dxy      -0.05452  -0.01289   0.01114   0.00006  -0.00082
17 Fe 6dyz       0.00728  -0.00390  -0.00305  -0.00107  -0.00063
17 Fe 6dz^2      0.02559   0.01300   0.01083   0.00010   0.00094
17 Fe 6dxz       0.00426  -0.00106   0.00578  -0.00144  -0.00040
17 Fe 6dx2-y2   -0.04069   0.01748  -0.00962  -0.00036   0.00363
17 Fe 4f-3       0.00024  -0.00005   0.00009   0.00001  -0.00003
17 Fe 4f-2       0.00002   0.00000  -0.00006   0.00002   0.00001
17 Fe 4f-1      -0.00010  -0.00020  -0.00018   0.00000  -0.00004
17 Fe 4f+0       0.00001  -0.00004  -0.00006  -0.00000  -0.00000
17 Fe 4f+1      -0.00012  -0.00008  -0.00003   0.00001  -0.00003
17 Fe 4f+2       0.00006  -0.00005  -0.00004  -0.00001  -0.00002
17 Fe 4f+3      -0.00035  -0.00012   0.00004   0.00000  -0.00003
17 Fe 5f-3       0.00071  -0.00242   0.00048   0.00005  -0.00041
17 Fe 5f-2       0.00037   0.00039  -0.00019   0.00009   0.00010
17 Fe 5f-1      -0.00022  -0.00188  -0.00062   0.00004  -0.00026
17 Fe 5f+0       0.00004  -0.00041  -0.00022  -0.00004  -0.00002
17 Fe 5f+1      -0.00028  -0.00072  -0.00007   0.00005  -0.00019
17 Fe 5f+2       0.00050  -0.00080  -0.00004  -0.00020  -0.00013
17 Fe 5f+3      -0.00268  -0.00136  -0.00019  -0.00002  -0.00026
17 Fe 5g-4       0.00136  -0.00010   0.00009   0.00000  -0.00003
17 Fe 5g-3      -0.00028   0.00009   0.00000  -0.00000  -0.00001
17 Fe 5g-2      -0.00079  -0.00066   0.00008   0.00000  -0.00000
17 Fe 5g-1       0.00013  -0.00015  -0.00014  -0.00001  -0.00001
17 Fe 5g+0       0.00072   0.00047   0.00053  -0.00000   0.00001
17 Fe 5g+1       0.00031  -0.00010   0.00048  -0.00001   0.00000
17 Fe 5g+2      -0.00072   0.00039  -0.00052  -0.00001   0.00001
17 Fe 5g+3      -0.00014   0.00029  -0.00027  -0.00000  -0.00001
17 Fe 5g+4      -0.00003  -0.00176   0.00081  -0.00000   0.00003
18 O 1s         -0.00007  -0.00037  -0.00025   0.00028  -0.00002
18 O 2s         -0.00868  -0.00738   0.00072  -0.00339  -0.00047
18 O 3s         -0.00262  -0.00194   0.00029  -0.00107  -0.00015
18 O 4s         -0.02100  -0.01056   0.00110  -0.00303  -0.00136
18 O 2px         0.00669   0.00459   0.00951  -0.00481   0.00593
18 O 2py         0.00753  -0.00900  -0.00486  -0.00098  -0.00492
18 O 2pz         0.00607  -0.01237   0.00454   0.00366   0.00340
18 O 3px         0.00775   0.00596   0.01169  -0.00546   0.00725
18 O 3py         0.00868  -0.01156  -0.00606  -0.00145  -0.00615
18 O 3pz         0.00677  -0.01658   0.00603   0.00369   0.00436
18 O 4px         0.00806   0.00646   0.01153  -0.00548   0.00853
18 O 4py         0.01000  -0.01305  -0.00825   0.00025  -0.00707
18 O 4pz         0.01251  -0.01514   0.00761   0.00586   0.00428
18 O 3dxy        0.00037  -0.00038  -0.00029   0.00002  -0.00002
18 O 3dyz       -0.00054   0.00025   0.00036   0.00007  -0.00001
18 O 3dz^2      -0.00040   0.00034  -0.00060   0.00002   0.00001
18 O 3dxz       -0.00082  -0.00036  -0.00010  -0.00003  -0.00003
18 O 3dx2-y2     0.00065   0.00016   0.00046  -0.00002  -0.00001
18 O 4dxy        0.00029  -0.00116  -0.00091  -0.00081   0.00011
18 O 4dyz       -0.00206   0.00087   0.00145   0.00008   0.00001
18 O 4dz^2      -0.00119   0.00136  -0.00263   0.00079   0.00016
18 O 4dxz       -0.00202  -0.00095  -0.00002  -0.00081   0.00009
18 O 4dx2-y2     0.00152   0.00072   0.00160   0.00033   0.00015
18 O 4f-3        0.00032   0.00004   0.00021  -0.00016   0.00002
18 O 4f-2       -0.00020  -0.00023  -0.00009   0.00002  -0.00001
18 O 4f-1       -0.00044   0.00033  -0.00011   0.00013   0.00001
18 O 4f+0        0.00003   0.00017  -0.00035  -0.00001   0.00001
18 O 4f+1       -0.00053  -0.00000  -0.00016   0.00016   0.00000
18 O 4f+2        0.00036  -0.00016  -0.00005  -0.00007  -0.00002
18 O 4f+3       -0.00004   0.00016   0.00018   0.00015   0.00001
19 Fe 1s         0.00007   0.00028  -0.00089   0.00000   0.00017
19 Fe 2s         0.00022   0.00081  -0.00265   0.00000   0.00052
19 Fe 3s         0.00138   0.00290  -0.01358   0.00000   0.00329
19 Fe 4s         0.01728   0.01768  -0.04568   0.00000  -0.00702
19 Fe 5s         0.00235   0.00195   0.00065  -0.00000  -0.00732
19 Fe 6s         0.00101   0.00164  -0.00169   0.00000   0.00080
19 Fe 7s         0.03498   0.00623   0.01546   0.00000   0.02452
19 Fe 2px        0.00005   0.00002   0.00148   0.00004  -0.00006
19 Fe 2py        0.00008   0.00003   0.00030  -0.00004   0.00009
19 Fe 2pz        0.00000   0.00000  -0.00017   0.00026   0.00002
19 Fe 3px        0.00044   0.00274   0.03669   0.00084  -0.00091
19 Fe 3py        0.00007  -0.00035   0.00717  -0.00084   0.00319
19 Fe 3pz       -0.00005  -0.00044  -0.00419   0.00592   0.00058
19 Fe 4px       -0.03463  -0.00672   0.13021   0.00247  -0.01375
19 Fe 4py        0.02654  -0.01588   0.03840  -0.00248   0.01549
19 Fe 4pz        0.00868  -0.00130  -0.01302   0.01750   0.00414
19 Fe 5px        0.02688  -0.00250  -0.16439  -0.00367   0.00780
19 Fe 5py       -0.01306   0.00408  -0.04279   0.00368  -0.02003
19 Fe 5pz       -0.00566   0.00093   0.01724  -0.02597  -0.00395
19 Fe 6px       -0.00180  -0.00122  -0.00634  -0.00008  -0.00012
19 Fe 6py       -0.00058   0.00145  -0.00097   0.00008  -0.00099
19 Fe 6pz        0.00017   0.00038   0.00076  -0.00058  -0.00012
19 Fe 7px       -0.01121  -0.00232   0.00101   0.00011  -0.01398
19 Fe 7py       -0.01556  -0.00651  -0.00227  -0.00011  -0.00038
19 Fe 7pz       -0.00062  -0.00059  -0.00046   0.00079   0.00193
19 Fe 3dxy      -0.00709   0.48275  -0.31327  -0.16752  -0.54909
19 Fe 3dyz      -0.00305   0.05747   0.01998  -0.83757   0.28443
19 Fe 3dz^2     -0.00318  -0.24887   0.37699  -0.29023  -0.67756
19 Fe 3dxz      -0.00677   0.07276   0.12042   0.29641  -0.22462
19 Fe 3dx2-y2    0.03460  -0.45913  -0.49508  -0.07670  -0.21090
19 Fe 4dxy      -0.00236  -0.04994   0.03821   0.02369   0.06189
19 Fe 4dyz      -0.00028  -0.00654  -0.00260   0.11841  -0.03192
19 Fe 4dz^2      0.00186   0.02654  -0.04611   0.04104   0.07612
19 Fe 4dxz      -0.00002  -0.00771  -0.01492  -0.04194   0.02533
19 Fe 4dx2-y2    0.00104   0.05023   0.06178   0.01084   0.02326
19 Fe 5dxy      -0.00071  -0.00981   0.00725   0.00465   0.01170
19 Fe 5dyz      -0.00006  -0.00134  -0.00045   0.02336  -0.00610
19 Fe 5dz^2      0.00080   0.00549  -0.00863   0.00805   0.01459
19 Fe 5dxz       0.00014  -0.00142  -0.00272  -0.00810   0.00482
19 Fe 5dx2-y2   -0.00027   0.00974   0.01118   0.00216   0.00451
19 Fe 6dxy      -0.00210   0.00779  -0.00435   0.00074  -0.00347
19 Fe 6dyz      -0.00065  -0.00042  -0.00108   0.00470   0.00111
19 Fe 6dz^2      0.00229  -0.00073   0.01044   0.00128  -0.00413
19 Fe 6dxz      -0.00009   0.00151   0.00297  -0.00030  -0.00203
19 Fe 6dx2-y2    0.00261  -0.00381  -0.00666   0.00063   0.00326
19 Fe 4f-3      -0.00004   0.00010  -0.00032  -0.00013  -0.00041
19 Fe 4f-2      -0.00000   0.00004   0.00004  -0.00044   0.00016
19 Fe 4f-1      -0.00001  -0.00017   0.00008   0.00003  -0.00007
19 Fe 4f+0      -0.00003  -0.00002  -0.00010   0.00002   0.00012
19 Fe 4f+1       0.00006  -0.00012   0.00036  -0.00018  -0.00037
19 Fe 4f+2       0.00001   0.00002   0.00010   0.00031  -0.00016
19 Fe 4f+3      -0.00005  -0.00040  -0.00031  -0.00002  -0.00009
19 Fe 5f-3      -0.00026   0.00165  -0.00393  -0.00036  -0.00311
19 Fe 5f-2       0.00017   0.00006   0.00074  -0.00035   0.00085
19 Fe 5f-1      -0.00066  -0.00114   0.00141  -0.00007  -0.00029
19 Fe 5f+0      -0.00024  -0.00036  -0.00107  -0.00057   0.00067
19 Fe 5f+1       0.00000  -0.00018   0.00438  -0.00069  -0.00194
19 Fe 5f+2       0.00009   0.00060   0.00142   0.00163  -0.00123
19 Fe 5f+3      -0.00161  -0.00336  -0.00432   0.00022   0.00078
19 Fe 5g-4       0.00010  -0.00017  -0.00007  -0.00016  -0.00010
19 Fe 5g-3      -0.00002   0.00001  -0.00001  -0.00020  -0.00003
19 Fe 5g-2       0.00001  -0.00017   0.00015  -0.00005  -0.00012
19 Fe 5g-1       0.00002  -0.00000  -0.00015   0.00021  -0.00001
19 Fe 5g+0      -0.00001   0.00010   0.00015   0.00007   0.00011
19 Fe 5g+1       0.00002  -0.00002   0.00011   0.00006   0.00002
19 Fe 5g+2      -0.00006   0.00005   0.00006  -0.00013  -0.00001
19 Fe 5g+3      -0.00001  -0.00004  -0.00000   0.00054  -0.00008
19 Fe 5g+4       0.00008  -0.00016   0.00026   0.00007   0.00011
20 O 1s         -0.00008  -0.00013  -0.00004  -0.00011  -0.00000
20 O 2s          0.00069   0.00993  -0.00943   0.03645  -0.00033
20 O 3s          0.00018   0.00292  -0.00250   0.01021  -0.00002
20 O 4s          0.00070   0.01746  -0.01474   0.05570   0.00024
20 O 2px        -0.00310   0.00539   0.01125  -0.01815  -0.01188
20 O 2py         0.00060   0.00644  -0.00432   0.02111   0.01450
20 O 2pz         0.00457  -0.00260  -0.01858   0.04679  -0.01595
20 O 3px        -0.00403   0.00631   0.01494  -0.02455  -0.01530
20 O 3py         0.00115   0.00828  -0.00591   0.02635   0.01849
20 O 3pz         0.00596  -0.00287  -0.02437   0.06100  -0.02075
20 O 4px        -0.00348   0.00538   0.01426  -0.02816  -0.01496
20 O 4py         0.00246   0.00475  -0.00213   0.02249   0.01813
20 O 4pz         0.00905  -0.00445  -0.02275   0.06001  -0.01959
20 O 3dxy        0.00015  -0.00035  -0.00025  -0.00012   0.00027
20 O 3dyz        0.00001  -0.00038   0.00030  -0.00127   0.00000
20 O 3dz^2      -0.00023   0.00020   0.00008  -0.00042   0.00067
20 O 3dxz        0.00006  -0.00030  -0.00023  -0.00017   0.00041
20 O 3dx2-y2    -0.00008   0.00028  -0.00031   0.00062   0.00051
20 O 4dxy       -0.00013  -0.00050  -0.00112   0.00039   0.00077
20 O 4dyz       -0.00031  -0.00063   0.00092  -0.00277   0.00029
20 O 4dz^2      -0.00005   0.00052   0.00030  -0.00081   0.00169
20 O 4dxz       -0.00006  -0.00067  -0.00032  -0.00133   0.00157
20 O 4dx2-y2     0.00014   0.00054  -0.00108   0.00156   0.00213
20 O 4f-3       -0.00000   0.00004   0.00024  -0.00028  -0.00034
20 O 4f-2       -0.00001   0.00011  -0.00019   0.00062  -0.00003
20 O 4f-1        0.00018  -0.00023   0.00007  -0.00019  -0.00022
20 O 4f+0        0.00001  -0.00005   0.00009  -0.00044   0.00041
20 O 4f+1        0.00011  -0.00018  -0.00024   0.00054  -0.00012
20 O 4f+2       -0.00013   0.00015   0.00014  -0.00031  -0.00007
20 O 4f+3        0.00005  -0.00018   0.00004  -0.00018  -0.00019
21 O 1s         -0.00008  -0.00013  -0.00004   0.00011  -0.00000
21 O 2s          0.00069   0.00993  -0.00943  -0.03645  -0.00033
21 O 3s          0.00018   0.00292  -0.00250  -0.01020  -0.00002
21 O 4s          0.00070   0.01746  -0.01474  -0.05570   0.00024
21 O 2px        -0.00420   0.00614   0.01572   0.02939  -0.00651
21 O 2py         0.00170   0.00569  -0.00879  -0.03234   0.00913
21 O 2pz        -0.00321   0.00269   0.01290   0.03247   0.02191
21 O 3px        -0.00546   0.00716   0.02078   0.03921  -0.00834
21 O 3py         0.00257   0.00742  -0.01175  -0.04101   0.01152
21 O 3pz        -0.00409   0.00318   0.01680   0.04240   0.02836
21 O 4px        -0.00572   0.00657   0.01983   0.04256  -0.00834
21 O 4py         0.00470   0.00356  -0.00770  -0.03689   0.01151
21 O 4pz        -0.00672   0.00394   0.01652   0.04156   0.02710
21 O 3dxy        0.00019  -0.00033  -0.00038  -0.00022   0.00026
21 O 3dyz        0.00007   0.00027  -0.00011  -0.00110  -0.00054
21 O 3dz^2      -0.00018   0.00023  -0.00013  -0.00017   0.00066
21 O 3dxz       -0.00009   0.00020   0.00021   0.00010  -0.00011
21 O 3dx2-y2    -0.00009   0.00044  -0.00030  -0.00096   0.00036
21 O 4dxy       -0.00005  -0.00054  -0.00138  -0.00083   0.00082
21 O 4dyz        0.00028   0.00034  -0.00027  -0.00223  -0.00192
21 O 4dz^2       0.00009   0.00045  -0.00016   0.00006   0.00177
21 O 4dxz       -0.00002   0.00056   0.00030  -0.00071  -0.00096
21 O 4dx2-y2     0.00023   0.00085  -0.00116  -0.00256   0.00146
21 O 4f-3       -0.00005   0.00007   0.00035   0.00063  -0.00028
21 O 4f-2        0.00002  -0.00007   0.00017   0.00066   0.00026
21 O 4f-1        0.00009  -0.00013   0.00004   0.00019   0.00000
21 O 4f+0        0.00003   0.00002   0.00008  -0.00001  -0.00032
21 O 4f+1        0.00005  -0.00011  -0.00009  -0.00023  -0.00031
21 O 4f+2        0.00019  -0.00020  -0.00010  -0.00032  -0.00014
21 O 4f+3        0.00012  -0.00027   0.00006   0.00030  -0.00015
22 Al 1s         0.00015  -0.00018   0.00018  -0.00000   0.00028
22 Al 2s         0.00131  -0.00196   0.00158  -0.00000   0.00246
22 Al 3s        -0.01686  -0.00581  -0.01164   0.00000  -0.00567
22 Al 4s        -0.00174   0.00019  -0.00019   0.00000  -0.00046
22 Al 5s        -0.01727   0.00940   0.01350  -0.00000  -0.00913
22 Al 2px        0.00126  -0.00092   0.00072  -0.00014   0.00214
22 Al 2py       -0.00229   0.00096  -0.00276   0.00014  -0.00084
22 Al 2pz       -0.00050   0.00027  -0.00049  -0.00099  -0.00042
22 Al 3px       -0.01069  -0.00308  -0.00588   0.00043  -0.00525
22 Al 3py        0.01049  -0.00217   0.00968  -0.00043   0.00531
22 Al 3pz        0.00300   0.00013   0.00221   0.00304   0.00150
22 Al 4px       -0.00034  -0.00006  -0.00024   0.00003  -0.00045
22 Al 4py        0.00077  -0.00004   0.00045  -0.00003   0.00009
22 Al 4pz        0.00016   0.00000   0.00010   0.00020   0.00008
22 Al 5px        0.00348   0.00285   0.00251   0.00026  -0.00670
22 Al 5py        0.00653  -0.00214  -0.00497  -0.00026  -0.00201
22 Al 5pz        0.00043  -0.00071  -0.00106   0.00182   0.00067
22 Al 3dxy      -0.00245  -0.00122  -0.00008  -0.00055   0.00230
22 Al 3dyz      -0.00095  -0.00002  -0.00125  -0.00093  -0.00015
22 Al 3dz^2      0.00367   0.00128   0.00371  -0.00095   0.00097
22 Al 3dxz       0.00020   0.00027   0.00062   0.00279   0.00103
22 Al 3dx2-y2    0.00264  -0.00087   0.00220   0.00026  -0.00311
22 Al 4dxy       0.00578  -0.00011   0.00520  -0.00015   0.00381
22 Al 4dyz      -0.00161   0.00050  -0.00258   0.00059  -0.00068
22 Al 4dz^2      0.00300  -0.00019   0.00376  -0.00026   0.00110
22 Al 4dxz       0.00163   0.00037   0.00088   0.00161   0.00102
22 Al 4dx2-y2   -0.00005  -0.00306   0.00598   0.00031  -0.00120
22 Al 4f-3       0.00096   0.00007  -0.00066  -0.00012   0.00210
22 Al 4f-2      -0.00075   0.00006  -0.00097  -0.00045  -0.00093
22 Al 4f-1      -0.00121   0.00029  -0.00299   0.00033  -0.00067
22 Al 4f+0      -0.00052  -0.00003  -0.00090  -0.00067  -0.00071
22 Al 4f+1       0.00008   0.00036  -0.00071  -0.00041   0.00110
22 Al 4f+2      -0.00033   0.00026  -0.00149   0.00016   0.00038
22 Al 4f+3       0.00135  -0.00050   0.00279  -0.00006   0.00053
23 O 1s         -0.00037  -0.00020  -0.00084   0.00000  -0.00013
23 O 2s          0.00066   0.03312   0.03738  -0.00000   0.00085
23 O 3s          0.00001   0.00956   0.01046  -0.00000   0.00029
23 O 4s          0.01135   0.06235   0.06631  -0.00000   0.00845
23 O 2px         0.02070   0.00073   0.05088   0.00105   0.00116
23 O 2py        -0.00775  -0.00665   0.00570  -0.00106  -0.01988
23 O 2pz        -0.00404  -0.00105  -0.00641   0.00747  -0.00298
23 O 3px         0.02648   0.00131   0.06546   0.00134   0.00115
23 O 3py        -0.00959  -0.00910   0.00787  -0.00135  -0.02521
23 O 3pz        -0.00512  -0.00148  -0.00817   0.00952  -0.00374
23 O 4px         0.04323  -0.00326   0.08044   0.00142  -0.00134
23 O 4py        -0.01289  -0.02827   0.01232  -0.00143  -0.02772
23 O 4pz        -0.00796  -0.00355  -0.00966   0.01006  -0.00374
23 O 3dxy        0.00180  -0.00103  -0.00052   0.00002   0.00051
23 O 3dyz       -0.00035  -0.00025   0.00000   0.00000  -0.00002
23 O 3dz^2       0.00009   0.00080   0.00087   0.00004  -0.00011
23 O 3dxz        0.00022  -0.00015   0.00029  -0.00016   0.00007
23 O 3dx2-y2     0.00046   0.00142  -0.00103  -0.00002  -0.00017
23 O 4dxy        0.00659  -0.00331  -0.00179  -0.00001   0.00126
23 O 4dyz       -0.00121  -0.00049   0.00037  -0.00052   0.00004
23 O 4dz^2      -0.00010   0.00143   0.00109  -0.00002  -0.00049
23 O 4dxz        0.00068  -0.00074   0.00040  -0.00044   0.00016
23 O 4dx2-y2     0.00188   0.00432  -0.00270  -0.00014  -0.00068
23 O 4f-3       -0.00023  -0.00124  -0.00019  -0.00002   0.00027
23 O 4f-2       -0.00012   0.00013   0.00017  -0.00022   0.00008
23 O 4f-1        0.00002  -0.00047  -0.00012   0.00006   0.00008
[...]
    0    4a+1b     6    A   0.000       1.0000  0.000000
    1    2a+4b     5    A   0.000       1.0000  0.000000
Wave function(s) in rootspace 28 in local primitive basis:
 Fac:  7.142e-03  8.849e-03  4.401e-03  9.657e-04  1.911e-03
  00: -1.000e+00 -1.000e+00 -1.000e+00 -1.000e+00 -1.000e+00
All 1 ENVs in rootspace 28 accounted for
Leading 10 CSFs of 1 local primitive basis functions for fragment 0 in rootspace 28:
State 0/1                
00000uuuuu :  9.82e-01   
0000uuuuu0 : -1.14e-01   
000u00uuuu : -7.48e-02   
00u00u0uuu : -7.11e-02   
0u000uu0uu : -6.75e-02   
u0000uuu0u : -5.75e-02   
uu000uu00u : -2.25e-02   
0uu00u00uu : -2.17e-02   
000uu0uuu0 :  2.10e-02   
0u0u00u0uu : -1.97e-02   
Leading 10 CSFs of 1 local primitive basis functions for fragment 1 in rootspace 28:
State 0/1                
000002uuuu :  9.03e-01   
00000uu2uu :  3.12e-01   
00000uuu2u :  2.30e-01   
0000duuuuu : -8.96e-02   
000u020uuu :  5.85e-02   
0u0002uu0u :  5.79e-02   
00u002u0uu :  5.75e-02   
0000uduuuu :  5.45e-02   
u00002uuu0 :  5.15e-02   
00d00uuuuu : -2.95e-02   
Rootspace 10 with averaged weight 2.357e-05
 Frag    Nelec  2S+1   Ir     <n>  Max(weight)   Entropy
    0    1a+4b     6    A   0.000       1.0000  0.000000
    1    5a+1b     5    A   0.000       1.0000  0.000000
Wave function(s) in rootspace 10 in local primitive basis:
 Fac:  3.624e-03  6.550e-03  6.748e-03  3.960e-03  7.536e-04
  00: -1.000e+00  1.000e+00 -1.000e+00 -1.000e+00  1.000e+00
All 1 ENVs in rootspace 10 accounted for
Leading 10 CSFs of 1 local primitive basis functions for fragment 0 in rootspace 10:
State 0/1                
00000uuuuu :  9.82e-01   
0000uuuuu0 : -1.14e-01   
000u00uuuu : -7.48e-02   
00u00u0uuu : -7.11e-02   
0u000uu0uu : -6.75e-02   
u0000uuu0u : -5.75e-02   
uu000uu00u : -2.25e-02   
0uu00u00uu : -2.17e-02   
000uu0uuu0 :  2.10e-02   
0u0u00u0uu : -1.97e-02   
Leading 10 CSFs of 1 local primitive basis functions for fragment 1 in rootspace 10:
State 0/1                
000002uuuu : -9.01e-01   
00000uu2uu : -3.12e-01   
00000uuu2u : -2.40e-01   
0000duuuuu :  8.94e-02   
000u020uuu : -5.83e-02   
0u0002uu0u : -5.77e-02   
00u002u0uu : -5.73e-02   
0000uduuuu : -5.43e-02   
u00002uuu0 : -5.14e-02   
00d00uuuuu :  2.95e-02   
Rootspace 6 with averaged weight 1.743e-05
 Frag    Nelec  2S+1   Ir     <n>  Max(weight)   Entropy
    0    2a+5b     4    A   0.000       1.0000  0.000000
    1    4a+0b     5    A   0.000       1.0000  0.000000
Wave function(s) in rootspace 6 in local primitive basis:
 Fac:  5.519e-06  1.063e-03  3.457e-03  6.057e-03  6.116e-03
  00: -1.000e+00  1.000e+00 -1.000e+00 -1.000e+00  1.000e+00
All 1 ENVs in rootspace 6 accounted for
Leading 10 CSFs of 1 local primitive basis functions for fragment 0 in rootspace 6:
State 0/1                
00000uu2u2 :  9.34e-01   
000002uuu2 : -2.56e-01   
0d000uuuu2 :  9.98e-02   
0000duu2uu : -9.44e-02   
000002u2uu : -7.16e-02   
00u00u02u2 :  6.56e-02   
000u00u2u2 :  6.50e-02   
u0000uu202 :  5.58e-02   
00000u2u2u :  5.58e-02   
0u000uudu2 : -4.95e-02   
Leading 10 CSFs of 1 local primitive basis functions for fragment 1 in rootspace 6:
State 0/1                
00000uuu0u :  9.71e-01   
000000uuuu :  1.90e-01   
0000u0uu0u : -6.76e-02   
000u0u0u0u : -6.70e-02   
00u00uu00u : -6.13e-02   
u0000uuu00 :  5.64e-02   
00000uu0uu : -4.25e-02   
u0u00uu000 :  2.13e-02   
000uu00u0u : -1.82e-02   
00u0u0u00u : -1.80e-02   
Rootspace 24 with averaged weight 1.491e-05
 Frag    Nelec  2S+1   Ir     <n>  Max(weight)   Entropy
    0    5a+2b     4    A   0.000       1.0000  0.000000
    1    1a+3b     5    A   0.000       1.0000  0.000000
Wave function(s) in rootspace 24 in local primitive basis:
 Fac:  9.323e-06  2.094e-03  5.077e-03  5.815e-03  3.253e-03
  00: -1.000e+00 -1.000e+00 -1.000e+00  1.000e+00  1.000e+00
All 1 ENVs in rootspace 24 accounted for
Leading 10 CSFs of 1 local primitive basis functions for fragment 0 in rootspace 24:
State 0/1                
00000uu2u2 :  9.34e-01   
000002uuu2 : -2.56e-01   
0d000uuuu2 :  9.98e-02   
0000duu2uu : -9.44e-02   
000002u2uu : -7.18e-02   
00u00u02u2 :  6.56e-02   
000u00u2u2 :  6.50e-02   
00000u2u2u :  5.60e-02   
u0000uu202 :  5.58e-02   
0u000uudu2 : -4.95e-02   
Leading 10 CSFs of 1 local primitive basis functions for fragment 1 in rootspace 24:
State 0/1                
00000uuu0u :  9.71e-01   
000000uuuu :  1.90e-01   
0000u0uu0u : -6.75e-02   
000u0u0u0u : -6.70e-02   
00u00uu00u : -6.13e-02   
u0000uuu00 :  5.64e-02   
00000uu0uu : -4.25e-02   
u0u00uu000 :  2.13e-02   
000uu00u0u : -1.82e-02   
00u0u0u00u : -1.80e-02   
Rootspace 31 with averaged weight 1.355e-05
 Frag    Nelec  2S+1   Ir     <n>  Max(weight)   Entropy
    0    5a+0b     6    A   0.000       1.0000  0.000000
    1    1a+5b     5    A   0.000       1.0000  0.000000
Wave function(s) in rootspace 31 in local primitive basis:
 Fac:  1.655e-03  3.738e-03  5.122e-03  4.475e-03  2.185e-03
  00:  1.000e+00  1.000e+00  1.000e+00 -1.000e+00 -1.000e+00
All 1 ENVs in rootspace 31 accounted for
Leading 10 CSFs of 1 local primitive basis functions for fragment 0 in rootspace 31:
State 0/1                
00000uuuuu :  9.82e-01   
0000uuuuu0 : -1.14e-01   
000u00uuuu : -7.48e-02   
00u00u0uuu : -7.11e-02   
0u000uu0uu : -6.75e-02   
u0000uuu0u : -5.75e-02   
uu000uu00u : -2.25e-02   
0uu00u00uu : -2.17e-02   
000uu0uuu0 :  2.10e-02   
0u0u00u0uu : -1.97e-02   
Leading 10 CSFs of 1 local primitive basis functions for fragment 1 in rootspace 31:
State 0/1                
000002uuuu :  8.97e-01   
00000uu2uu :  3.12e-01   
00000uuu2u :  2.53e-01   
0000duuuuu : -8.91e-02   
000u020uuu :  5.80e-02   
0u0002uu0u :  5.75e-02   
00u002u0uu :  5.71e-02   
0000uduuuu :  5.41e-02   
u00002uuu0 :  5.12e-02   
00d00uuuuu : -2.96e-02   
Rootspace 12 with averaged weight 1.324e-05
 Frag    Nelec  2S+1   Ir     <n>  Max(weight)   Entropy
    0    3a+4b     4    A   0.000       1.0000  0.000000
    1    3a+1b     5    A   0.000       1.0000  0.000000
Wave function(s) in rootspace 12 in local primitive basis:
 Fac:  7.599e-06  3.574e-03  4.802e-03  1.747e-04  5.505e-03
  00:  1.000e+00 -1.000e+00  1.000e+00 -1.000e+00  1.000e+00
All 1 ENVs in rootspace 12 accounted for
Leading 10 CSFs of 1 local primitive basis functions for fragment 0 in rootspace 12:
State 0/1                
00000uu2u2 :  9.34e-01   
000002uuu2 : -2.56e-01   
0d000uuuu2 :  9.98e-02   
0000duu2uu : -9.44e-02   
000002u2uu : -7.20e-02   
00u00u02u2 :  6.56e-02   
000u00u2u2 :  6.50e-02   
00000u2u2u :  5.61e-02   
u0000uu202 :  5.58e-02   
0u000uudu2 : -4.95e-02   
Leading 10 CSFs of 1 local primitive basis functions for fragment 1 in rootspace 12:
State 0/1                
00000uuu0u :  9.71e-01   
000000uuuu :  1.91e-01   
0000u0uu0u : -6.75e-02   
000u0u0u0u : -6.70e-02   
00u00uu00u : -6.13e-02   
u0000uuu00 :  5.64e-02   
00000uu0uu : -4.25e-02   
u0u00uu000 :  2.13e-02   
000uu00u0u : -1.82e-02   
00u0u0u00u : -1.80e-02   
Rootspace 18 with averaged weight 1.240e-05
 Frag    Nelec  2S+1   Ir     <n>  Max(weight)   Entropy
    0    4a+3b     4    A   0.000       1.0000  0.000000
    1    2a+2b     5    A   0.000       1.0000  0.000000
Wave function(s) in rootspace 18 in local primitive basis:
 Fac:  5.255e-06  4.354e-03  2.342e-03  4.061e-03  4.588e-03
  00:  1.000e+00  1.000e+00  1.000e+00  1.000e+00  1.000e+00
All 1 ENVs in rootspace 18 accounted for
Leading 10 CSFs of 1 local primitive basis functions for fragment 0 in rootspace 18:
State 0/1                
00000uu2u2 :  9.34e-01   
000002uuu2 : -2.57e-01   
0d000uuuu2 :  9.98e-02   
0000duu2uu : -9.44e-02   
000002u2uu : -7.20e-02   
00u00u02u2 :  6.56e-02   
000u00u2u2 :  6.50e-02   
00000u2u2u :  5.61e-02   
u0000uu202 :  5.58e-02   
0u000uudu2 : -4.95e-02   
Leading 10 CSFs of 1 local primitive basis functions for fragment 1 in rootspace 18:
State 0/1                
00000uuu0u :  9.71e-01   
000000uuuu :  1.91e-01   
0000u0uu0u : -6.75e-02   
000u0u0u0u : -6.70e-02   
00u00uu00u : -6.13e-02   
u0000uuu00 :  5.64e-02   
00000uu0uu : -4.24e-02   
u0u00uu000 :  2.13e-02   
000uu00u0u : -1.82e-02   
00u0u0u00u : -1.80e-02   
Rootspace 5 with averaged weight 3.257e-08
 Frag    Nelec  2S+1   Ir     <n>  Max(weight)   Entropy
    0    0a+5b     6    A   0.000       1.0000  0.000000
    1    6a+0b     7    A   0.000       1.0000  0.000000
Wave function(s) in rootspace 5 in local primitive basis:
 Fac:  3.610e-05  1.027e-04  1.897e-04  2.542e-04  2.245e-04
  00: -1.000e+00  1.000e+00 -1.000e+00 -1.000e+00  1.000e+00
All 1 ENVs in rootspace 5 accounted for
Leading 10 CSFs of 1 local primitive basis functions for fragment 0 in rootspace 5:
State 0/1                
00000uuuuu :  9.82e-01   
0000uuuuu0 : -1.14e-01   
000u00uuuu : -7.49e-02   
00u00u0uuu : -7.12e-02   
0u000uu0uu : -6.75e-02   
u0000uuu0u : -5.76e-02   
uu000uu00u : -2.25e-02   
0uu00u00uu : -2.17e-02   
000uu0uuu0 :  2.10e-02   
0u0u00u0uu : -1.97e-02   
Leading 10 CSFs of 1 local primitive basis functions for fragment 1 in rootspace 5:
State 0/1                
0000uuuuuu :  9.56e-01   
00u00uuuuu :  2.53e-01   
000uuu0uuu : -6.18e-02   
0u00uuuu0u : -6.17e-02   
00u0uuu0uu : -5.97e-02   
0u000uuuuu : -5.82e-02   
u000uuuuu0 : -5.41e-02   
u0u0uuu0u0 : -2.29e-02   
0u0uuu0u0u : -2.18e-02   
00uuuu00uu : -1.96e-02   
Rootspace 32 with averaged weight 2.735e-08
 Frag    Nelec  2S+1   Ir     <n>  Max(weight)   Entropy
    0    5a+0b     6    A   0.000       1.0000  0.000000
    1    1a+5b     7    A   0.000       1.0000  0.000000
Wave function(s) in rootspace 32 in local primitive basis:
 Fac:  7.388e-05  1.675e-04  2.301e-04  2.014e-04  9.849e-05
  00: -1.000e+00 -1.000e+00 -1.000e+00  1.000e+00  1.000e+00
All 1 ENVs in rootspace 32 accounted for
Leading 10 CSFs of 1 local primitive basis functions for fragment 0 in rootspace 32:
State 0/1                
00000uuuuu :  9.82e-01   
0000uuuuu0 : -1.14e-01   
000u00uuuu : -7.49e-02   
00u00u0uuu : -7.11e-02   
0u000uu0uu : -6.75e-02   
u0000uuu0u : -5.76e-02   
uu000uu00u : -2.25e-02   
0uu00u00uu : -2.17e-02   
000uu0uuu0 :  2.10e-02   
0u0u00u0uu : -1.97e-02   
Leading 10 CSFs of 1 local primitive basis functions for fragment 1 in rootspace 32:
State 0/1                
0000uuuuuu :  9.57e-01   
00u00uuuuu :  2.52e-01   
000uuu0uuu : -6.18e-02   
0u00uuuu0u : -6.17e-02   
00u0uuu0uu : -5.97e-02   
0u000uuuuu : -5.87e-02   
u000uuuuu0 : -5.41e-02   
u0u0uuu0u0 : -2.30e-02   
0u0uuu0u0u : -2.18e-02   
00uuuu00uu : -1.96e-02   
Rootspace 11 with averaged weight 2.309e-08
 Frag    Nelec  2S+1   Ir     <n>  Max(weight)   Entropy
    0    1a+4b     6    A   0.000       1.0000  0.000000
    1    5a+1b     7    A   0.000       1.0000  0.000000
Wave function(s) in rootspace 11 in local primitive basis:
 Fac:  1.255e-04  1.865e-04  1.006e-04  9.804e-05  2.126e-04
  00:  1.000e+00 -1.000e+00  1.000e+00 -1.000e+00  1.000e+00
All 1 ENVs in rootspace 11 accounted for
Leading 10 CSFs of 1 local primitive basis functions for fragment 0 in rootspace 11:
State 0/1                
00000uuuuu :  9.82e-01   
0000uuuuu0 : -1.14e-01   
000u00uuuu : -7.49e-02   
00u00u0uuu : -7.11e-02   
0u000uu0uu : -6.75e-02   
u0000uuu0u : -5.76e-02   
uu000uu00u : -2.25e-02   
0uu00u00uu : -2.17e-02   
000uu0uuu0 :  2.10e-02   
0u0u00u0uu : -1.97e-02   
Leading 10 CSFs of 1 local primitive basis functions for fragment 1 in rootspace 11:
State 0/1                
0000uuuuuu :  9.57e-01   
00u00uuuuu :  2.51e-01   
000uuu0uuu : -6.18e-02   
0u00uuuu0u : -6.17e-02   
00u0uuu0uu : -5.97e-02   
0u000uuuuu : -5.90e-02   
u000uuuuu0 : -5.41e-02   
u0u0uuu0u0 : -2.30e-02   
0u0uuu0u0u : -2.18e-02   
00uuuu00uu : -1.96e-02   
Rootspace 29 with averaged weight 1.986e-08
 Frag    Nelec  2S+1   Ir     <n>  Max(weight)   Entropy
    0    4a+1b     6    A   0.000       1.0000  0.000000
    1    2a+4b     7    A   0.000       1.0000  0.000000
Wave function(s) in rootspace 29 in local primitive basis:
 Fac:  1.463e-04  1.176e-04  6.608e-05  2.000e-04  1.404e-04
  00:  1.000e+00  1.000e+00 -1.000e+00  1.000e+00  1.000e+00
All 1 ENVs in rootspace 29 accounted for
Leading 10 CSFs of 1 local primitive basis functions for fragment 0 in rootspace 29:
State 0/1                
00000uuuuu :  9.82e-01   
0000uuuuu0 : -1.14e-01   
000u00uuuu : -7.49e-02   
00u00u0uuu : -7.11e-02   
0u000uu0uu : -6.75e-02   
u0000uuu0u : -5.76e-02   
uu000uu00u : -2.25e-02   
0uu00u00uu : -2.17e-02   
000uu0uuu0 :  2.10e-02   
0u0u00u0uu : -1.97e-02   
Leading 10 CSFs of 1 local primitive basis functions for fragment 1 in rootspace 29:
State 0/1                
0000uuuuuu :  9.57e-01   
00u00uuuuu :  2.50e-01   
000uuu0uuu : -6.19e-02   
0u00uuuu0u : -6.18e-02   
00u0uuu0uu : -5.97e-02   
0u000uuuuu : -5.93e-02   
u000uuuuu0 : -5.41e-02   
u0u0uuu0u0 : -2.30e-02   
0u0uuu0u0u : -2.18e-02   
00uuuu00uu : -1.96e-02   
Rootspace 17 with averaged weight 1.769e-08
 Frag    Nelec  2S+1   Ir     <n>  Max(weight)   Entropy
    0    2a+3b     6    A   0.000       1.0000  0.000000
    1    4a+2b     7    A   0.000       1.0000  0.000000
Wave function(s) in rootspace 17 in local primitive basis:
 Fac:  1.183e-04  4.170e-05  1.828e-04  3.541e-05  1.950e-04
  00: -1.000e+00 -1.000e+00  1.000e+00  1.000e+00  1.000e+00
All 1 ENVs in rootspace 17 accounted for
Leading 10 CSFs of 1 local primitive basis functions for fragment 0 in rootspace 17:
State 0/1                
00000uuuuu :  9.82e-01   
0000uuuuu0 : -1.14e-01   
000u00uuuu : -7.49e-02   
00u00u0uuu : -7.11e-02   
0u000uu0uu : -6.75e-02   
u0000uuu0u : -5.76e-02   
uu000uu00u : -2.25e-02   
0uu00u00uu : -2.17e-02   
000uu0uuu0 :  2.10e-02   
0u0u00u0uu : -1.97e-02   
Leading 10 CSFs of 1 local primitive basis functions for fragment 1 in rootspace 17:
State 0/1                
0000uuuuuu :  9.57e-01   
00u00uuuuu :  2.49e-01   
000uuu0uuu : -6.19e-02   
0u00uuuu0u : -6.18e-02   
00u0uuu0uu : -5.97e-02   
0u000uuuuu : -5.94e-02   
u000uuuuu0 : -5.41e-02   
u0u0uuu0u0 : -2.30e-02   
0u0uuu0u0u : -2.18e-02   
00uuuu00uu : -1.96e-02   
Rootspace 23 with averaged weight 1.659e-08
 Frag    Nelec  2S+1   Ir     <n>  Max(weight)   Entropy
    0    3a+2b     6    A   0.000       1.0000  0.000000
    1    3a+3b     7    A   0.000       1.0000  0.000000
Wave function(s) in rootspace 23 in local primitive basis:
 Fac:  5.116e-05  1.442e-04  1.053e-04  1.382e-04  1.713e-04
  00: -1.000e+00  1.000e+00  1.000e+00  1.000e+00  1.000e+00
All 1 ENVs in rootspace 23 accounted for
Leading 10 CSFs of 1 local primitive basis functions for fragment 0 in rootspace 23:
State 0/1                
00000uuuuu :  9.82e-01   
0000uuuuu0 : -1.14e-01   
000u00uuuu : -7.48e-02   
00u00u0uuu : -7.11e-02   
0u000uu0uu : -6.75e-02   
u0000uuu0u : -5.76e-02   
uu000uu00u : -2.25e-02   
0uu00u00uu : -2.17e-02   
000uu0uuu0 :  2.10e-02   
0u0u00u0uu : -1.97e-02   
Leading 10 CSFs of 1 local primitive basis functions for fragment 1 in rootspace 23:
State 0/1                
0000uuuuuu :  9.57e-01   
00u00uuuuu :  2.49e-01   
000uuu0uuu : -6.19e-02   
0u00uuuu0u : -6.18e-02   
00u0uuu0uu : -5.97e-02   
0u000uuuuu : -5.95e-02   
u000uuuuu0 : -5.41e-02   
u0u0uuu0u0 : -2.30e-02   
0u0uuu0u0u : -2.18e-02   
00uuuu00uu : -1.96e-02   
Rootspace 21 with averaged weight 6.513e-09
 Frag    Nelec  2S+1   Ir     <n>  Max(weight)   Entropy
    0    3a+2b     4    A   0.000       1.0000  0.000000
    1    3a+3b     7    A   0.000       1.0000  0.000000
Wave function(s) in rootspace 21 in local primitive basis:
 Fac:  1.572e-04  5.557e-05  5.497e-05  4.160e-05  5.105e-07
  00: -1.000e+00 -1.000e+00  1.000e+00 -1.000e+00 -1.000e+00
All 1 ENVs in rootspace 21 accounted for
Leading 10 CSFs of 1 local primitive basis functions for fragment 0 in rootspace 21:
State 0/1                
000000uuu2 :  6.89e-01   
00000u2u0u :  4.23e-01   
00000uu0u2 :  3.27e-01   
00000uuduu : -2.35e-01   
00000duuuu :  2.22e-01   
000000u2uu : -2.20e-01   
00000uu2u0 :  1.45e-01   
00000uuudu :  9.53e-02   
00000uduuu : -8.37e-02   
000002u0uu :  7.38e-02   
Leading 10 CSFs of 1 local primitive basis functions for fragment 1 in rootspace 21:
State 0/1                
0000uuuuuu :  9.59e-01   
00u00uuuuu :  2.41e-01   
000uuu0uuu : -6.21e-02   
0u00uuuu0u : -6.20e-02   
00u0uuu0uu : -5.99e-02   
0u000uuuuu : -5.91e-02   
u000uuuuu0 : -5.43e-02   
u0u0uuu0u0 : -2.30e-02   
0u0uuu0u0u : -2.19e-02   
00uuuu00uu : -1.97e-02   
Rootspace 15 with averaged weight 6.092e-09
 Frag    Nelec  2S+1   Ir     <n>  Max(weight)   Entropy
    0    2a+3b     4    A   0.000       1.0000  0.000000
    1    4a+2b     7    A   0.000       1.0000  0.000000
Wave function(s) in rootspace 15 in local primitive basis:
 Fac:  1.363e-04  9.654e-05  1.617e-05  4.802e-05  1.455e-06
  00:  1.000e+00 -1.000e+00 -1.000e+00 -1.000e+00 -1.000e+00
All 1 ENVs in rootspace 15 accounted for
Leading 10 CSFs of 1 local primitive basis functions for fragment 0 in rootspace 15:
State 0/1                
000000uuu2 :  6.91e-01   
00000u2u0u :  4.21e-01   
00000uu0u2 :  3.28e-01   
00000uuduu : -2.34e-01   
00000duuuu :  2.21e-01   
000000u2uu : -2.19e-01   
00000uu2u0 :  1.45e-01   
00000uuudu :  9.50e-02   
00000uduuu : -8.37e-02   
000002u0uu :  7.36e-02   
Leading 10 CSFs of 1 local primitive basis functions for fragment 1 in rootspace 15:
State 0/1                
0000uuuuuu :  9.59e-01   
00u00uuuuu :  2.41e-01   
000uuu0uuu : -6.20e-02   
0u00uuuu0u : -6.20e-02   
00u0uuu0uu : -5.99e-02   
0u000uuuuu : -5.91e-02   
u000uuuuu0 : -5.43e-02   
u0u0uuu0u0 : -2.30e-02   
0u0uuu0u0u : -2.19e-02   
00uuuu00uu : -1.97e-02   
Rootspace 27 with averaged weight 5.254e-09
 Frag    Nelec  2S+1   Ir     <n>  Max(weight)   Entropy
    0    4a+1b     4    A   0.000       1.0000  0.000000
    1    2a+4b     7    A   0.000       1.0000  0.000000
Wave function(s) in rootspace 27 in local primitive basis:
 Fac:  7.897e-05  1.120e-04  8.223e-05  2.718e-05  1.716e-07
  00:  1.000e+00  1.000e+00  1.000e+00 -1.000e+00  1.000e+00
All 1 ENVs in rootspace 27 accounted for
Leading 10 CSFs of 1 local primitive basis functions for fragment 0 in rootspace 27:
State 0/1                
000000uuu2 :  6.94e-01   
00000u2u0u :  4.18e-01   
00000uu0u2 :  3.28e-01   
00000uuduu : -2.32e-01   
00000duuuu :  2.20e-01   
000000u2uu : -2.19e-01   
00000uu2u0 :  1.45e-01   
00000uuudu :  9.42e-02   
00000uduuu : -8.38e-02   
000002u0uu :  7.32e-02   
Leading 10 CSFs of 1 local primitive basis functions for fragment 1 in rootspace 27:
State 0/1                
0000uuuuuu :  9.59e-01   
00u00uuuuu :  2.42e-01   
000uuu0uuu : -6.20e-02   
0u00uuuu0u : -6.20e-02   
00u0uuu0uu : -5.99e-02   
0u000uuuuu : -5.89e-02   
u000uuuuu0 : -5.43e-02   
u0u0uuu0u0 : -2.30e-02   
0u0uuu0u0u : -2.19e-02   
00uuuu00uu : -1.97e-02   
Rootspace 9 with averaged weight 3.964e-09
 Frag    Nelec  2S+1   Ir     <n>  Max(weight)   Entropy
    0    1a+4b     4    A   0.000       1.0000  0.000000
    1    5a+1b     7    A   0.000       1.0000  0.000000
Wave function(s) in rootspace 9 in local primitive basis:
 Fac:  5.005e-05  8.883e-05  8.706e-05  4.293e-05  2.081e-06
  00: -1.000e+00  1.000e+00 -1.000e+00 -1.000e+00 -1.000e+00
All 1 ENVs in rootspace 9 accounted for
Leading 10 CSFs of 1 local primitive basis functions for fragment 0 in rootspace 9:
State 0/1                
000000uuu2 :  6.99e-01   
00000u2u0u :  4.13e-01   
00000uu0u2 :  3.29e-01   
00000uuduu : -2.28e-01   
00000duuuu :  2.19e-01   
000000u2uu : -2.18e-01   
00000uu2u0 :  1.45e-01   
00000uuudu :  9.31e-02   
00000uduuu : -8.38e-02   
000002uuu0 :  7.53e-02   
Leading 10 CSFs of 1 local primitive basis functions for fragment 1 in rootspace 9:
State 0/1                
0000uuuuuu :  9.59e-01   
00u00uuuuu :  2.42e-01   
000uuu0uuu : -6.20e-02   
0u00uuuu0u : -6.20e-02   
00u0uuu0uu : -5.99e-02   
0u000uuuuu : -5.88e-02   
u000uuuuu0 : -5.43e-02   
u0u0uuu0u0 : -2.30e-02   
0u0uuu0u0u : -2.19e-02   
00uuuu00uu : -1.97e-02   
Remaining 5 rootspaces have combined weight = 7.120657e-09
