#INFO: **** input file is /project/lgagliardi/valayagarawal/lasscf/mof_nodes/Al_Fe_Fe/production/20_11/lassi_1_21.py ****
import numpy as np
import sys
from pyscf import gto, scf, tools,lib, mcscf
from pyscf.mcscf import avas,project_init_guess
from pyscf import mcscf
from mrh.my_pyscf.tools import molden
from mrh.my_pyscf.mcscf import lasscf_async as asyn
mol_name='Al_Fe_Fe.xyz' # Al-Fe-Fe MOF node
basis={'C': 'cc-pvdz','H': 'cc-pvdz','O': 'cc-pvtz','Al': 'cc-pvtz','Fe': 'cc-pvtz'}
n=21
output='r1_n'+str(n)+'.log'
mol=gto.M(atom=mol_name,verbose=4,spin=9,charge=0,basis=basis, output=output) #spin = 2S
mf=scf.RHF(mol)
mf.init_guess='atom'
mf=mf.density_fit()
mf.max_cycle=1
mf.kernel()
mf.mo_coeff=np.load('hf.npy')
#np.save('hf',mf.mo_coeff)
#ncas,nelecas,guess_mo_coeff=avas.kernel(mf,['Fe 3d', 'Fe 4d'],minao=mol.basis, openshell_option=3)
#mc_test = mcscf.CASCI (mf, ncas, nelecas)
#tools.molden.from_mo(mol,'avas.molden',guess_mo_coeff[:,mc_test.ncore:][:,:ncas])
#final_list=[5,6,8,9,10,11,12,13,14]#,15,16,17,18,19,20,21,22,23,24,25]+mc_test.ncore

mo_guess=np.load('las_20_11.npy')
las=asyn.LASSCF(mf,(10,10),((1,5),(5,0)),spin_sub=(5,6),verbose=4) # spin is 2S+1
las.set_fragments_(([17],[19]),mo_guess)
las.mo_coeff=mo_guess
from mrh.my_pyscf.lassi import states
las=states.spin_shuffle(las)
#for _ in range(i):
las=states.all_single_excitations(las)
ncsf=las.get_ugg().ncsf_sub
lroots=np.minimum(n,ncsf)
las.lasci()
las.lasci(lroots=lroots)
e_roots, si= las.lassi(opt=1)
from mrh.my_pyscf.lassi.sitools import analyze
analyze(las,si, state=[0,1,2,3,4])
#INFO: ******************** input file end ********************


System: uname_result(system='Linux', node='midway3-0545.rcc.local', release='4.18.0-305.3.1.el8.x86_64', version='#1 SMP Tue Jun 1 16:14:33 UTC 2021', machine='x86_64')  Threads 16
Python 3.9.12 (main, Apr  5 2022, 06:56:58) 
[GCC 7.5.0]
numpy 1.25.0  scipy 1.7.3
Date: Tue Feb 20 18:11:48 2024
PySCF version 2.5.0
PySCF path  /project/lgagliardi/shared/Apps/pyscf
GIT ORIG_HEAD 0bc590ffddec98eec5d2513a3d85274b7a791bc6
GIT HEAD (branch master) 6f8ce439fbe0c26ec4d226e2225b28c7f668f922

[ENV] PYSCF_MAX_MEMORY 128000
[CONFIG] conf_file /home/valayagarawal/.pyscf_conf.py
[INPUT] verbose = 4
[INPUT] num. atoms = 28
[INPUT] num. electrons = 211
[INPUT] charge = 0
[INPUT] spin (= nelec alpha-beta = 2S) = 9
[INPUT] symmetry False subgroup None
[INPUT] Mole.unit = angstrom
[INPUT] Symbol           X                Y                Z      unit          X                Y                Z       unit  Magmom
[INPUT]  1 O     -2.220198244100   0.399190300300   1.694471698900 AA   -4.195566623589   0.754360339150   3.202087436747 Bohr   0.0
[INPUT]  2 O     -1.685553244600  -1.782306321700   1.431399507200 AA   -3.185234000666  -3.368070818094   2.704953043445 Bohr   0.0
[INPUT]  3 C     -2.268517865100  -0.831955037900   1.983951274000 AA   -4.286877473722  -1.572167169583   3.749124552342 Bohr   0.0
[INPUT]  4 H     -2.913342016700  -1.076728588500   2.843786805300 AA   -5.505418518751  -2.034722142755   5.373978218669 Bohr   0.0
[INPUT]  5 O      1.388288080900   2.079556156200  -1.347085675300 AA    2.623484254899   3.929791595871  -2.545622992642 Bohr   0.0
[INPUT]  6 O     -0.759908859500   2.580923634700  -0.849227704000 AA   -1.436019624086   4.877238818000  -1.604807777953 Bohr   0.0
[INPUT]  7 C      0.346567468600   2.753895325000  -1.438835699000 AA    0.654917599338   5.204107939970  -2.719005409357 Bohr   0.0
[INPUT]  8 H      0.372379614500   3.617699659800  -2.123091150300 AA    0.703695485776   6.836461557954  -4.012060811555 Bohr   0.0
[INPUT]  9 O      1.046960908100  -2.642534200000   0.961324672200 AA    1.978469379435  -4.993665912797   1.816640347245 Bohr   0.0
[INPUT] 10 O     -0.399190300300   2.220198244100   1.694471698900 AA   -0.754360339150   4.195566623589   3.202087436747 Bohr   0.0
[INPUT] 11 O      1.782306321700   1.685553244600   1.431399507200 AA    3.368070818094   3.185234000666   2.704953043445 Bohr   0.0
[INPUT] 12 C      0.831955037900   2.268517865100   1.983951274000 AA    1.572167169583   4.286877473722   3.749124552342 Bohr   0.0
[INPUT] 13 H      1.076728588500   2.913342016700   2.843786805300 AA    2.034722142755   5.505418518751   5.373978218669 Bohr   0.0
[INPUT] 14 O     -2.079556156200  -1.388288080900  -1.347085675300 AA   -3.929791595871  -2.623484254899  -2.545622992642 Bohr   0.0
[INPUT] 15 O     -2.580923634700   0.759908859500  -0.849227704000 AA   -4.877238818000   1.436019624086  -1.604807777953 Bohr   0.0
[INPUT] 16 C     -2.753895325000  -0.346567468600  -1.438835699000 AA   -5.204107939970  -0.654917599338  -2.719005409357 Bohr   0.0
[INPUT] 17 H     -3.617699659800  -0.372379614500  -2.123091150300 AA   -6.836461557954  -0.703695485776  -4.012060811555 Bohr   0.0
[INPUT] 18 Fe    -0.379874189300  -1.792603362900  -0.200337730300 AA   -0.717858179568  -3.387529405855  -0.378583442684 Bohr   0.0
[INPUT] 19 O      0.642223180300  -2.237796553000  -1.892914517600 AA    1.213625921614  -4.228822607666  -3.577090015477 Bohr   0.0
[INPUT] 20 Fe     1.792603362900   0.379874189300  -0.200337730300 AA    3.387529405855   0.717858179568  -0.378583442684 Bohr   0.0
[INPUT] 21 O      2.237796553000  -0.642223180300  -1.892914517600 AA    4.228822607666  -1.213625921614  -3.577090015477 Bohr   0.0
[INPUT] 22 O      2.642534200000  -1.046960908100   0.961324672200 AA    4.993665912797  -1.978469379435   1.816640347245 Bohr   0.0
[INPUT] 23 Al    -1.236271642100   1.236271642100   0.350650148000 AA   -2.336214819135   2.336214819135   0.662632745258 Bohr   0.0
[INPUT] 24 O     -0.044950195400   0.044950195400   0.012762141300 AA   -0.084943558552   0.084943558552   0.024116951820 Bohr   0.0
[INPUT] 25 C      1.645528685000  -1.645528685000  -2.357112465400 AA    3.109598544766  -3.109598544766  -4.454297004404 Bohr   0.0
[INPUT] 26 H      2.056906298400  -2.056906298400  -3.294571291600 AA    3.886989567869  -3.886989567869  -6.225837438979 Bohr   0.0
[INPUT] 27 C      2.160924281100  -2.160924281100   1.277584186800 AA    4.083555067202  -4.083555067202   2.414284214127 Bohr   0.0
[INPUT] 28 H      2.796080543300  -2.796080543300   1.918244302400 AA    5.283826449062  -5.283826449062   3.624956371543 Bohr   0.0

nuclear repulsion = 3455.30471244119
number of shells = 192
number of NR pGTOs = 1065
number of NR cGTOs = 674
basis = {'C': 'cc-pvdz', 'H': 'cc-pvdz', 'O': 'cc-pvtz', 'Al': 'cc-pvtz', 'Fe': 'cc-pvtz'}
ecp = {}
CPU time:         1.94


******** <class 'pyscf.df.df_jk.DFROHF'> ********
method = DFROHF
initial guess = atom
damping factor = 0
level_shift factor = 0
DIIS = <class 'pyscf.scf.diis.CDIIS'>
diis_start_cycle = 1
diis_space = 8
diis_damp = 0
SCF conv_tol = 1e-09
SCF conv_tol_grad = None
SCF max_cycles = 1
direct_scf = False
chkfile to save SCF result = /scratch/local/jobs/17478230/tmpp78j241l
max_memory 128000 MB (current use 76 MB)
num. doubly occ = 101  num. singly occ = 9
Set gradient conv threshold to 3.16228e-05
Initial guess from the superpostion of atomic densties.
Spherically averaged atomic HF for {'H', 'Al', 'C', 'Fe', 'O'}


******** <class 'pyscf.scf.atom_hf.AtomSphAverageRHF'> ********
method = AtomSphAverageRHF
initial guess = minao
damping factor = 0
level_shift factor = 0
DIIS = <class 'pyscf.scf.diis.CDIIS'>
diis_start_cycle = 1
diis_space = 8
diis_damp = 0
SCF conv_tol = 1e-09
SCF conv_tol_grad = None
SCF max_cycles = 50
direct_scf = True
direct_scf_tol = 1e-13
chkfile to save SCF result = /scratch/local/jobs/17478230/tmpq27thi3x
max_memory 128000 MB (current use 76 MB)
atom = O
Set gradient conv threshold to 3.16228e-05
Initial guess from minao.
init E= -74.2776996160121
cycle= 1 E= -74.2879632957299  delta_E= -0.0103  |g|=    0  |ddm|= 0.12
cycle= 2 E= -74.2889455295059  delta_E= -0.000982  |g|=    0  |ddm|= 0.0571
cycle= 3 E= -74.2891874928551  delta_E= -0.000242  |g|=    0  |ddm|= 0.0164
cycle= 4 E= -74.2891907662377  delta_E= -3.27e-06  |g|=    0  |ddm|= 0.00334
cycle= 5 E= -74.2891907667003  delta_E= -4.63e-10  |g|=    0  |ddm|= 2.73e-05
Extra cycle  E= -74.2891907667016  delta_E= -1.32e-12  |g|=    0  |ddm|= 2.08e-06
Atomic HF for atom  O  converged. SCF energy = -74.2891907667016



******** <class 'pyscf.scf.atom_hf.AtomSphAverageRHF'> ********
method = AtomSphAverageRHF
initial guess = minao
damping factor = 0
level_shift factor = 0
DIIS = <class 'pyscf.scf.diis.CDIIS'>
diis_start_cycle = 1
diis_space = 8
diis_damp = 0
SCF conv_tol = 1e-09
SCF conv_tol_grad = None
SCF max_cycles = 50
direct_scf = True
direct_scf_tol = 1e-13
chkfile to save SCF result = /scratch/local/jobs/17478230/tmp3aemcmmv
max_memory 128000 MB (current use 99 MB)
atom = C
Set gradient conv threshold to 3.16228e-05
Initial guess from minao.
init E= -37.2786538116583
cycle= 1 E= -37.3229525149147  delta_E= -0.0443  |g|=    0  |ddm|= 0.403
cycle= 2 E= -37.3269979443145  delta_E= -0.00405  |g|=    0  |ddm|= 0.158
cycle= 3 E= -37.3274168905011  delta_E= -0.000419  |g|=    0  |ddm|= 0.0324
cycle= 4 E= -37.3274218270201  delta_E= -4.94e-06  |g|=    0  |ddm|= 0.00651
cycle= 5 E= -37.3274218271774  delta_E= -1.57e-10  |g|=    0  |ddm|= 2.35e-05
Extra cycle  E= -37.3274218271781  delta_E= -6.89e-13  |g|=    0  |ddm|= 2.26e-06
Atomic HF for atom  C  converged. SCF energy = -37.3274218271781



******** 1 electron system ********
Atomic HF for atom  H  converged. SCF energy = -0.499278403419583



******** <class 'pyscf.scf.atom_hf.AtomSphAverageRHF'> ********
method = AtomSphAverageRHF
initial guess = minao
damping factor = 0
level_shift factor = 0
DIIS = <class 'pyscf.scf.diis.CDIIS'>
diis_start_cycle = 1
diis_space = 8
diis_damp = 0
SCF conv_tol = 1e-09
SCF conv_tol_grad = None
SCF max_cycles = 50
direct_scf = True
direct_scf_tol = 1e-13
chkfile to save SCF result = /scratch/local/jobs/17478230/tmpbxyczasi
max_memory 128000 MB (current use 101 MB)
atom = Fe
Set gradient conv threshold to 3.16228e-05
Initial guess from minao.
init E= -1260.96738533155
cycle= 1 E= -1256.37714318082  delta_E= 4.59  |g|=    0  |ddm|= 4.24
cycle= 2 E= -1255.54237595451  delta_E= 0.835  |g|=    0  |ddm|=   15
cycle= 3 E= -1260.89038467173  delta_E= -5.35  |g|=    0  |ddm|= 13.7
cycle= 4 E= -1261.57047534209  delta_E= -0.68  |g|=    0  |ddm|= 0.824
cycle= 5 E= -1261.57622492119  delta_E= -0.00575  |g|=    0  |ddm|= 0.301
cycle= 6 E= -1261.57666902676  delta_E= -0.000444  |g|=    0  |ddm|= 0.0322
cycle= 7 E= -1261.57674274459  delta_E= -7.37e-05  |g|=    0  |ddm|= 0.0137
cycle= 8 E= -1261.57674388082  delta_E= -1.14e-06  |g|=    0  |ddm|= 0.00344
cycle= 9 E= -1261.57674388923  delta_E= -8.41e-09  |g|=    0  |ddm|= 0.000127
cycle= 10 E= -1261.57674388923  delta_E= -2.05e-12  |g|=    0  |ddm|= 3.35e-06
Extra cycle  E= -1261.57674388923  delta_E= 2.27e-13  |g|=    0  |ddm|= 3.97e-07
Atomic HF for atom  Fe  converged. SCF energy = -1261.57674388923



******** <class 'pyscf.scf.atom_hf.AtomSphAverageRHF'> ********
method = AtomSphAverageRHF
initial guess = minao
damping factor = 0
level_shift factor = 0
DIIS = <class 'pyscf.scf.diis.CDIIS'>
diis_start_cycle = 1
diis_space = 8
diis_damp = 0
SCF conv_tol = 1e-09
SCF conv_tol_grad = None
SCF max_cycles = 50
direct_scf = True
direct_scf_tol = 1e-13
chkfile to save SCF result = /scratch/local/jobs/17478230/tmpuec5fmyw
max_memory 128000 MB (current use 146 MB)
atom = Al
Set gradient conv threshold to 3.16228e-05
Initial guess from minao.
init E= -241.752580224975
cycle= 1 E= -241.774394279578  delta_E= -0.0218  |g|=    0  |ddm|= 0.33
cycle= 2 E= -241.774822880148  delta_E= -0.000429  |g|=    0  |ddm|= 0.0589
cycle= 3 E= -241.77484101355  delta_E= -1.81e-05  |g|=    0  |ddm|= 0.00725
cycle= 4 E= -241.774841578884  delta_E= -5.65e-07  |g|=    0  |ddm|= 0.00216
cycle= 5 E= -241.774841604663  delta_E= -2.58e-08  |g|=    0  |ddm|= 0.000719
cycle= 6 E= -241.774841604811  delta_E= -1.48e-10  |g|=    0  |ddm|= 5.97e-05
Extra cycle  E= -241.774841604812  delta_E= -1.45e-12  |g|=    0  |ddm|= 4.44e-06
Atomic HF for atom  Al  converged. SCF energy = -241.774841604812

******** <class 'pyscf.df.df.DF'> ********
auxbasis = None
max_memory = 128000
Even tempered Gaussians are generated as DF auxbasis for  H O Al C Fe
init E= -3975.68788353038
  HOMO = -0.0424478076028852  LUMO = -0.031666834193102
cycle= 1 E= -3969.65777955844  delta_E= 6.03  |g|= 3.14  |ddm|= 4.67
SCF not converged.
SCF energy = -3969.65777955844
Built 4 spin(local Sz)-shuffled LAS states from 1 reference LAS states
Built 28 singly-excited LAS states from 5 reference LAS states
Entering product-state fixed-point CI iteration
Cycle 0: max grad = 1.884708e-01 ; sigma = 0.000000e+00
Cycle 1: max grad = 1.229424e-05 ; sigma = 3.346305e-02
Cycle 2: max grad = 2.560975e-06 ; sigma = 8.626699e-11
Product_state fixed-point CI iteration converged after 2 cycles
Entering product-state fixed-point CI iteration
Cycle 0: max grad = 1.884708e-01 ; sigma = 0.000000e+00
Cycle 1: max grad = 5.393863e-06 ; sigma = 3.348211e-02
Cycle 2: max grad = 2.369173e-06 ; sigma = 5.272227e-12
Product_state fixed-point CI iteration converged after 2 cycles
Entering product-state fixed-point CI iteration
Cycle 0: max grad = 1.884708e-01 ; sigma = 0.000000e+00
Cycle 1: max grad = 3.475708e-06 ; sigma = 3.349033e-02
Cycle 2: max grad = 2.276478e-06 ; sigma = 6.231460e-12
Product_state fixed-point CI iteration converged after 2 cycles
Entering product-state fixed-point CI iteration
Cycle 0: max grad = 1.884708e-01 ; sigma = 0.000000e+00
Cycle 1: max grad = 3.522775e-06 ; sigma = 3.348759e-02
Cycle 2: max grad = 2.308122e-06 ; sigma = 8.554935e-12
Product_state fixed-point CI iteration converged after 2 cycles
Entering product-state fixed-point CI iteration
Cycle 0: max grad = 1.884708e-01 ; sigma = 0.000000e+00
Cycle 1: max grad = 8.368410e-06 ; sigma = 3.347392e-02
Cycle 2: max grad = 2.455328e-06 ; sigma = 1.881517e-11
Product_state fixed-point CI iteration converged after 2 cycles
Entering product-state fixed-point CI iteration
Cycle 0: max grad = 2.784311e-01 ; sigma = 0.000000e+00
Cycle 1: max grad = 4.634879e-05 ; sigma = 5.318269e-02
Cycle 2: max grad = 5.292951e-07 ; sigma = 5.085563e-08
Cycle 3: max grad = 8.523434e-10 ; sigma = 6.252776e-13
Product_state fixed-point CI iteration converged after 3 cycles
Entering product-state fixed-point CI iteration
Cycle 0: max grad = 3.067236e-01 ; sigma = 0.000000e+00
Cycle 1: max grad = 5.992311e-04 ; sigma = 1.169371e-01
Cycle 2: max grad = 2.250365e-06 ; sigma = 4.611400e-06
Cycle 3: max grad = 9.943609e-07 ; sigma = 9.102052e-12
Product_state fixed-point CI iteration converged after 3 cycles
Entering product-state fixed-point CI iteration
Cycle 0: max grad = 2.327562e-01 ; sigma = 0.000000e+00
Cycle 1: max grad = 5.648643e-04 ; sigma = 4.391494e-02
Cycle 2: max grad = 4.292256e-06 ; sigma = 2.400541e-06
Cycle 3: max grad = 8.594107e-07 ; sigma = 5.911716e-12
Product_state fixed-point CI iteration converged after 3 cycles
Entering product-state fixed-point CI iteration
Cycle 0: max grad = 3.083310e-01 ; sigma = 0.000000e+00
Cycle 1: max grad = 1.806373e-04 ; sigma = 5.815313e-03
Cycle 2: max grad = 3.471513e-06 ; sigma = 1.001354e-06
Cycle 3: max grad = 3.580480e-06 ; sigma = 1.041229e-10
Cycle 4: max grad = 1.643296e-06 ; sigma = 2.629008e-12
Product_state fixed-point CI iteration converged after 4 cycles
Entering product-state fixed-point CI iteration
Cycle 0: max grad = 2.551366e-01 ; sigma = 0.000000e+00
Cycle 1: max grad = 2.036378e-04 ; sigma = 8.150694e-02
Cycle 2: max grad = 1.928086e-06 ; sigma = 9.333423e-07
Cycle 3: max grad = 8.431799e-07 ; sigma = 2.671214e-10
Cycle 4: max grad = 4.869203e-07 ; sigma = 1.115907e-11
Product_state fixed-point CI iteration converged after 4 cycles
Entering product-state fixed-point CI iteration
Cycle 0: max grad = 3.077537e-01 ; sigma = 0.000000e+00
Cycle 1: max grad = 3.556113e-04 ; sigma = 3.436487e-02
Cycle 2: max grad = 1.955002e-06 ; sigma = 2.408482e-07
Cycle 3: max grad = 1.232657e-06 ; sigma = 1.876543e-11
Product_state fixed-point CI iteration converged after 3 cycles
Entering product-state fixed-point CI iteration
Cycle 0: max grad = 2.785850e-01 ; sigma = 0.000000e+00
Cycle 1: max grad = 4.595661e-05 ; sigma = 5.318012e-02
Cycle 2: max grad = 5.618072e-07 ; sigma = 5.927163e-08
Cycle 3: max grad = 7.166700e-10 ; sigma = 6.465939e-13
Product_state fixed-point CI iteration converged after 3 cycles
Entering product-state fixed-point CI iteration
Cycle 0: max grad = 3.067052e-01 ; sigma = 0.000000e+00
Cycle 1: max grad = 5.861469e-04 ; sigma = 1.170948e-01
Cycle 2: max grad = 2.135161e-06 ; sigma = 4.179263e-06
Cycle 3: max grad = 1.320258e-06 ; sigma = 9.009682e-12
Product_state fixed-point CI iteration converged after 3 cycles
Entering product-state fixed-point CI iteration
Cycle 0: max grad = 2.327512e-01 ; sigma = 0.000000e+00
Cycle 1: max grad = 5.626359e-04 ; sigma = 4.458519e-02
Cycle 2: max grad = 4.646999e-06 ; sigma = 4.939012e-06
Cycle 3: max grad = 6.020661e-07 ; sigma = 1.312017e-11
Product_state fixed-point CI iteration converged after 3 cycles
Entering product-state fixed-point CI iteration
Cycle 0: max grad = 3.083128e-01 ; sigma = 0.000000e+00
Cycle 1: max grad = 2.345229e-04 ; sigma = 5.828458e-03
Cycle 2: max grad = 5.566392e-06 ; sigma = 1.777866e-06
Cycle 3: max grad = 1.318146e-06 ; sigma = 3.041265e-10
Cycle 4: max grad = 1.083318e-06 ; sigma = 3.403500e-12
Product_state fixed-point CI iteration converged after 4 cycles
Entering product-state fixed-point CI iteration
Cycle 0: max grad = 2.550410e-01 ; sigma = 0.000000e+00
Cycle 1: max grad = 2.379875e-04 ; sigma = 8.171111e-02
Cycle 2: max grad = 1.927086e-06 ; sigma = 1.317811e-06
Cycle 3: max grad = 9.762213e-07 ; sigma = 3.389680e-10
Cycle 4: max grad = 5.648514e-07 ; sigma = 1.482192e-11
Product_state fixed-point CI iteration converged after 4 cycles
Entering product-state fixed-point CI iteration
Cycle 0: max grad = 3.077285e-01 ; sigma = 0.000000e+00
Cycle 1: max grad = 3.454360e-04 ; sigma = 3.460276e-02
Cycle 2: max grad = 2.317995e-06 ; sigma = 4.272844e-07
Cycle 3: max grad = 1.132493e-06 ; sigma = 8.874679e-12
Product_state fixed-point CI iteration converged after 3 cycles
Entering product-state fixed-point CI iteration
Cycle 0: max grad = 2.786705e-01 ; sigma = 0.000000e+00
Cycle 1: max grad = 4.651225e-05 ; sigma = 5.317862e-02
Cycle 2: max grad = 5.794670e-07 ; sigma = 6.407414e-08
Cycle 3: max grad = 6.451021e-10 ; sigma = 6.323830e-13
Product_state fixed-point CI iteration converged after 3 cycles
Entering product-state fixed-point CI iteration
Cycle 0: max grad = 3.067015e-01 ; sigma = 0.000000e+00
Cycle 1: max grad = 5.835233e-04 ; sigma = 1.171264e-01
Cycle 2: max grad = 2.112375e-06 ; sigma = 4.118257e-06
Cycle 3: max grad = 1.202589e-06 ; sigma = 7.396750e-12
Product_state fixed-point CI iteration converged after 3 cycles
Entering product-state fixed-point CI iteration
Cycle 0: max grad = 2.327502e-01 ; sigma = 0.000000e+00
Cycle 1: max grad = 5.629732e-04 ; sigma = 4.471923e-02
Cycle 2: max grad = 4.715402e-06 ; sigma = 5.349624e-06
Cycle 3: max grad = 5.617916e-07 ; sigma = 1.448086e-11
Product_state fixed-point CI iteration converged after 3 cycles
Entering product-state fixed-point CI iteration
Cycle 0: max grad = 3.083092e-01 ; sigma = 0.000000e+00
Cycle 1: max grad = 2.491446e-04 ; sigma = 5.831027e-03
Cycle 2: max grad = 6.002161e-06 ; sigma = 1.870328e-06
Cycle 3: max grad = 1.760538e-06 ; sigma = 3.921841e-10
Cycle 4: max grad = 1.220893e-06 ; sigma = 1.053024e-11
Product_state fixed-point CI iteration converged after 4 cycles
Entering product-state fixed-point CI iteration
Cycle 0: max grad = 2.550219e-01 ; sigma = 0.000000e+00
Cycle 1: max grad = 2.449739e-04 ; sigma = 8.175297e-02
Cycle 2: max grad = 1.955722e-06 ; sigma = 1.402521e-06
Cycle 3: max grad = 1.005238e-06 ; sigma = 3.551968e-10
Cycle 4: max grad = 5.831845e-07 ; sigma = 1.566747e-11
Product_state fixed-point CI iteration converged after 4 cycles
Entering product-state fixed-point CI iteration
Cycle 0: max grad = 3.077235e-01 ; sigma = 0.000000e+00
Cycle 1: max grad = 3.433519e-04 ; sigma = 3.465135e-02
Cycle 2: max grad = 2.389028e-06 ; sigma = 4.710340e-07
Cycle 3: max grad = 1.062282e-06 ; sigma = 6.551204e-12
Product_state fixed-point CI iteration converged after 3 cycles
Entering product-state fixed-point CI iteration
Cycle 0: max grad = 2.786876e-01 ; sigma = 0.000000e+00
Cycle 1: max grad = 4.673089e-05 ; sigma = 5.317831e-02
Cycle 2: max grad = 5.829607e-07 ; sigma = 6.504433e-08
Cycle 3: max grad = 6.311461e-10 ; sigma = 6.465939e-13
Product_state fixed-point CI iteration converged after 3 cycles
Entering product-state fixed-point CI iteration
Cycle 0: max grad = 3.067125e-01 ; sigma = 0.000000e+00
Cycle 1: max grad = 5.913872e-04 ; sigma = 1.170316e-01
Cycle 2: max grad = 2.179901e-06 ; sigma = 4.326966e-06
Cycle 3: max grad = 2.905984e-07 ; sigma = 7.268852e-12
Product_state fixed-point CI iteration converged after 3 cycles
Entering product-state fixed-point CI iteration
Cycle 0: max grad = 2.327532e-01 ; sigma = 0.000000e+00
Cycle 1: max grad = 5.619537e-04 ; sigma = 4.431709e-02
Cycle 2: max grad = 4.507687e-06 ; sigma = 4.019992e-06
Cycle 3: max grad = 6.936838e-07 ; sigma = 1.058709e-11
Product_state fixed-point CI iteration converged after 3 cycles
Entering product-state fixed-point CI iteration
Cycle 0: max grad = 3.083201e-01 ; sigma = 0.000000e+00
Cycle 1: max grad = 2.055908e-04 ; sigma = 5.823260e-03
Cycle 2: max grad = 4.711353e-06 ; sigma = 1.531161e-06
Cycle 3: max grad = 2.353117e-06 ; sigma = 2.384297e-10
Cycle 4: max grad = 1.042747e-06 ; sigma = 9.158896e-12
Product_state fixed-point CI iteration converged after 4 cycles
Entering product-state fixed-point CI iteration
Cycle 0: max grad = 2.550792e-01 ; sigma = 0.000000e+00
Cycle 1: max grad = 2.241311e-04 ; sigma = 8.162841e-02
Cycle 2: max grad = 1.913730e-06 ; sigma = 1.156262e-06
Cycle 3: max grad = 9.208399e-07 ; sigma = 3.084644e-10
Cycle 4: max grad = 5.292846e-07 ; sigma = 1.308464e-11
Product_state fixed-point CI iteration converged after 4 cycles
Entering product-state fixed-point CI iteration
Cycle 0: max grad = 3.077386e-01 ; sigma = 0.000000e+00
Cycle 1: max grad = 3.495559e-04 ; sigma = 3.450660e-02
Cycle 2: max grad = 2.174276e-06 ; sigma = 3.461727e-07
Cycle 3: max grad = 1.213587e-06 ; sigma = 1.325873e-11
Product_state fixed-point CI iteration converged after 3 cycles
Entering product-state fixed-point CI iteration
Cycle 0: max grad = 2.786363e-01 ; sigma = 0.000000e+00
Cycle 1: max grad = 4.607566e-05 ; sigma = 5.317923e-02
Cycle 2: max grad = 5.724407e-07 ; sigma = 6.214310e-08
Cycle 3: max grad = 6.733778e-10 ; sigma = 6.892265e-13
Product_state fixed-point CI iteration converged after 3 cycles
Entering product-state fixed-point CI iteration
Cycle 0: max grad = 2.327602e-01 ; sigma = 0.000000e+00
Cycle 1: max grad = 6.209126e-04 ; sigma = 4.337872e-02
Cycle 2: max grad = 3.992423e-06 ; sigma = 1.978466e-07
Cycle 3: max grad = 1.137854e-06 ; sigma = 3.961276e-12
Product_state fixed-point CI iteration converged after 3 cycles
Entering product-state fixed-point CI iteration
Cycle 0: max grad = 3.077738e-01 ; sigma = 0.000000e+00
Cycle 1: max grad = 3.634427e-04 ; sigma = 3.418067e-02
Cycle 2: max grad = 3.346335e-06 ; sigma = 1.317946e-07
Cycle 3: max grad = 4.962140e-07 ; sigma = 9.592327e-12
Product_state fixed-point CI iteration converged after 3 cycles
Entering product-state fixed-point CI iteration
Cycle 0: max grad = 2.785166e-01 ; sigma = 0.000000e+00
Cycle 1: max grad = 4.605856e-05 ; sigma = 5.318129e-02
Cycle 2: max grad = 5.474639e-07 ; sigma = 5.549291e-08
Cycle 3: max grad = 7.759529e-10 ; sigma = 5.648815e-13
Product_state fixed-point CI iteration converged after 3 cycles
LASSCF state-average energy = -3971.89018525224
LASSCF state 0 energy = -3971.89018525224
LASSCF state 1 energy = -3971.89049467745
LASSCF state 2 energy = -3971.8906273398
LASSCF state 3 energy = -3971.89058311557
LASSCF state 4 energy = -3971.89036204604
LASSCF state 5 energy = -3969.48093908276
LASSCF state 6 energy = -3970.98995513759
LASSCF state 7 energy = -3969.569277641
LASSCF state 8 energy = -3971.5111195471
LASSCF state 9 energy = -3969.35032714229
LASSCF state 10 energy = -3971.64263382622
LASSCF state 11 energy = -3969.48199401442
LASSCF state 12 energy = -3970.99011278563
LASSCF state 13 energy = -3969.56971596364
LASSCF state 14 energy = -3971.51146460594
LASSCF state 15 energy = -3969.3507335344
LASSCF state 16 energy = -3971.64312475168
LASSCF state 17 energy = -3969.48258018069
LASSCF state 18 energy = -3970.99014433942
LASSCF state 19 energy = -3969.56980395116
LASSCF state 20 energy = -3971.51153490949
LASSCF state 21 energy = -3969.35081586567
LASSCF state 22 energy = -3971.64322411903
LASSCF state 23 energy = -3969.48269742185
LASSCF state 24 energy = -3970.99004970236
LASSCF state 25 energy = -3969.56954031213
LASSCF state 26 energy = -3971.51132530586
LASSCF state 27 energy = -3969.35056993026
LASSCF state 28 energy = -3971.64292719394
LASSCF state 29 energy = -3969.48234570627
LASSCF state 30 energy = -3969.56892890982
LASSCF state 31 energy = -3971.64224828029
LASSCF state 32 energy = -3969.48152512913
Entering product-state fixed-point CI iteration
Cycle 0: max grad = 1.828637e+03 ; sigma = 0.000000e+00
Cycle 1: max grad = 1.133154e-05 ; sigma = 6.293988e-11
Product_state fixed-point CI iteration converged after 1 cycles
Entering product-state fixed-point CI iteration
Cycle 0: max grad = 1.828699e+03 ; sigma = 0.000000e+00
Cycle 1: max grad = 2.963869e-05 ; sigma = 5.989875e-11
Product_state fixed-point CI iteration converged after 1 cycles
Entering product-state fixed-point CI iteration
Cycle 0: max grad = 1.828725e+03 ; sigma = 0.000000e+00
Cycle 1: max grad = 3.694429e-06 ; sigma = 5.862688e-11
Product_state fixed-point CI iteration converged after 1 cycles
Entering product-state fixed-point CI iteration
Cycle 0: max grad = 1.828716e+03 ; sigma = 0.000000e+00
Cycle 1: max grad = 2.374884e-05 ; sigma = 5.904610e-11
Product_state fixed-point CI iteration converged after 1 cycles
Entering product-state fixed-point CI iteration
Cycle 0: max grad = 1.828672e+03 ; sigma = 0.000000e+00
Cycle 1: max grad = 7.954014e-06 ; sigma = 6.117773e-11
Product_state fixed-point CI iteration converged after 1 cycles
Entering product-state fixed-point CI iteration
Cycle 0: max grad = 1.011765e+03 ; sigma = 0.000000e+00
Cycle 1: max grad = 9.182450e-12 ; sigma = 1.065814e-14
Product_state fixed-point CI iteration converged after 1 cycles
Entering product-state fixed-point CI iteration
Cycle 0: max grad = 1.705052e+03 ; sigma = 0.000000e+00
Cycle 1: max grad = 2.726351e-04 ; sigma = 9.244161e-11
Cycle 2: max grad = 2.188942e-05 ; sigma = 2.557954e-13
Product_state fixed-point CI iteration converged after 2 cycles
Entering product-state fixed-point CI iteration
Cycle 0: max grad = 1.317652e+03 ; sigma = 0.000000e+00
Cycle 1: max grad = 1.357414e-06 ; sigma = 6.609824e-11
Product_state fixed-point CI iteration converged after 1 cycles
Entering product-state fixed-point CI iteration
Cycle 0: max grad = 1.182667e+03 ; sigma = 0.000000e+00
Cycle 1: max grad = 1.852311e-03 ; sigma = 1.180172e-03
Cycle 2: max grad = 2.143525e-04 ; sigma = 1.799096e-07
Cycle 3: max grad = 5.507777e-05 ; sigma = 1.129763e-11
Product_state fixed-point CI iteration converged after 3 cycles
Entering product-state fixed-point CI iteration
Cycle 0: max grad = 1.178109e+03 ; sigma = 0.000000e+00
Cycle 1: max grad = 1.821248e-04 ; sigma = 1.215504e-03
Cycle 2: max grad = 1.681960e-06 ; sigma = 4.569069e-07
Cycle 3: max grad = 1.248341e-06 ; sigma = 2.555822e-11
Product_state fixed-point CI iteration converged after 3 cycles
Entering product-state fixed-point CI iteration
Cycle 0: max grad = 1.496397e+03 ; sigma = 0.000000e+00
Cycle 1: max grad = 1.812324e-03 ; sigma = 3.283418e-11
Cycle 2: max grad = 3.956802e-04 ; sigma = 9.237056e-14
Cycle 3: max grad = 7.080343e-05 ; sigma = 2.131628e-14
Product_state fixed-point CI iteration converged after 3 cycles
Entering product-state fixed-point CI iteration
Cycle 0: max grad = 1.011814e+03 ; sigma = 0.000000e+00
Cycle 1: max grad = 8.076775e-12 ; sigma = 4.263256e-14
Product_state fixed-point CI iteration converged after 1 cycles
Entering product-state fixed-point CI iteration
Cycle 0: max grad = 1.704500e+03 ; sigma = 0.000000e+00
Cycle 1: max grad = 5.314235e-04 ; sigma = 9.057288e-11
Cycle 2: max grad = 1.628634e-06 ; sigma = 5.115908e-13
Product_state fixed-point CI iteration converged after 2 cycles
Entering product-state fixed-point CI iteration
Cycle 0: max grad = 1.535828e+03 ; sigma = 0.000000e+00
Cycle 1: max grad = 2.219436e-06 ; sigma = 8.445866e-11
Product_state fixed-point CI iteration converged after 1 cycles
Entering product-state fixed-point CI iteration
Cycle 0: max grad = 1.496961e+03 ; sigma = 0.000000e+00
Cycle 1: max grad = 1.456547e-03 ; sigma = 1.431940e-03
Cycle 2: max grad = 3.031427e-04 ; sigma = 5.088461e-07
Cycle 3: max grad = 1.692654e-04 ; sigma = 3.473062e-10
Cycle 4: max grad = 8.975490e-05 ; sigma = 2.273737e-12
Product_state fixed-point CI iteration converged after 4 cycles
Entering product-state fixed-point CI iteration
Cycle 0: max grad = 1.164650e+03 ; sigma = 0.000000e+00
Cycle 1: max grad = 1.651692e-04 ; sigma = 1.541943e-03
Cycle 2: max grad = 1.180207e-06 ; sigma = 2.170460e-07
Cycle 3: max grad = 8.565477e-07 ; sigma = 1.998757e-11
Product_state fixed-point CI iteration converged after 3 cycles
Entering product-state fixed-point CI iteration
Cycle 0: max grad = 1.048105e+03 ; sigma = 0.000000e+00
Cycle 1: max grad = 1.787550e-03 ; sigma = 2.376765e-11
Cycle 2: max grad = 9.786023e-04 ; sigma = 1.776357e-13
Cycle 3: max grad = 1.218608e-04 ; sigma = 1.136868e-13
Cycle 4: max grad = 3.591061e-05 ; sigma = 1.563194e-13
Product_state fixed-point CI iteration converged after 4 cycles
Entering product-state fixed-point CI iteration
Cycle 0: max grad = 1.011842e+03 ; sigma = 0.000000e+00
Cycle 1: max grad = 7.781517e-12 ; sigma = 7.105427e-15
Product_state fixed-point CI iteration converged after 1 cycles
Entering product-state fixed-point CI iteration
Cycle 0: max grad = 1.704405e+03 ; sigma = 0.000000e+00
Cycle 1: max grad = 1.073921e-04 ; sigma = 7.782575e-11
Cycle 2: max grad = 7.393929e-06 ; sigma = 4.334311e-13
Product_state fixed-point CI iteration converged after 2 cycles
Entering product-state fixed-point CI iteration
Cycle 0: max grad = 1.317733e+03 ; sigma = 0.000000e+00
Cycle 1: max grad = 2.020841e-06 ; sigma = 9.220003e-11
Product_state fixed-point CI iteration converged after 1 cycles
Entering product-state fixed-point CI iteration
Cycle 0: max grad = 1.497801e+03 ; sigma = 0.000000e+00
Cycle 1: max grad = 1.502308e-03 ; sigma = 1.484257e-03
Cycle 2: max grad = 1.452987e-04 ; sigma = 8.707194e-07
Cycle 3: max grad = 5.661085e-04 ; sigma = 8.740457e-10
Cycle 4: max grad = 1.054798e-04 ; sigma = 3.439027e-12
Cycle 5: max grad = 2.015300e-05 ; sigma = 1.300293e-12
Product_state fixed-point CI iteration converged after 5 cycles
Entering product-state fixed-point CI iteration
Cycle 0: max grad = 1.161901e+03 ; sigma = 0.000000e+00
Cycle 1: max grad = 1.619130e-04 ; sigma = 1.608640e-03
Cycle 2: max grad = 1.090582e-06 ; sigma = 1.826415e-07
Cycle 3: max grad = 7.922315e-07 ; sigma = 1.885070e-11
Product_state fixed-point CI iteration converged after 3 cycles
Entering product-state fixed-point CI iteration
Cycle 0: max grad = 1.049438e+03 ; sigma = 0.000000e+00
Cycle 1: max grad = 1.966006e-03 ; sigma = 2.195577e-11
Cycle 2: max grad = 2.116125e-04 ; sigma = 2.771117e-13
Cycle 3: max grad = 1.965211e-04 ; sigma = 1.705303e-13
Cycle 4: max grad = 2.210296e-04 ; sigma = 1.776357e-13
Cycle 5: max grad = 1.294298e-04 ; sigma = 1.989520e-13
Cycle 6: max grad = 7.375853e-05 ; sigma = 1.847411e-13
Product_state fixed-point CI iteration converged after 6 cycles
Entering product-state fixed-point CI iteration
Cycle 0: max grad = 1.011847e+03 ; sigma = 0.000000e+00
Cycle 1: max grad = 7.751359e-12 ; sigma = 2.131628e-14
Product_state fixed-point CI iteration converged after 1 cycles
Entering product-state fixed-point CI iteration
Cycle 0: max grad = 1.704717e+03 ; sigma = 0.000000e+00
Cycle 1: max grad = 5.750845e-04 ; sigma = 1.218581e-11
Cycle 2: max grad = 4.660252e-05 ; sigma = 1.350031e-13
Product_state fixed-point CI iteration converged after 2 cycles
Entering product-state fixed-point CI iteration
Cycle 0: max grad = 1.317693e+03 ; sigma = 0.000000e+00
Cycle 1: max grad = 1.764734e-06 ; sigma = 7.368328e-11
Product_state fixed-point CI iteration converged after 1 cycles
Entering product-state fixed-point CI iteration
Cycle 0: max grad = 1.495259e+03 ; sigma = 0.000000e+00
Cycle 1: max grad = 1.839336e-03 ; sigma = 1.329262e-03
Cycle 2: max grad = 5.724664e-04 ; sigma = 9.446580e-08
Cycle 3: max grad = 4.461262e-04 ; sigma = 1.877254e-11
Cycle 4: max grad = 2.033713e-05 ; sigma = 2.273737e-13
Product_state fixed-point CI iteration converged after 4 cycles
Entering product-state fixed-point CI iteration
Cycle 0: max grad = 1.170092e+03 ; sigma = 0.000000e+00
Cycle 1: max grad = 1.718124e-04 ; sigma = 1.409890e-03
Cycle 2: max grad = 1.369140e-06 ; sigma = 2.990507e-07
Cycle 3: max grad = 1.016008e-06 ; sigma = 2.230038e-11
Product_state fixed-point CI iteration converged after 3 cycles
Entering product-state fixed-point CI iteration
Cycle 0: max grad = 1.499826e+03 ; sigma = 0.000000e+00
Cycle 1: max grad = 1.602324e-03 ; sigma = 2.756195e-11
Cycle 2: max grad = 1.939550e-04 ; sigma = 1.847411e-13
Cycle 3: max grad = 1.437395e-04 ; sigma = 1.136868e-13
Cycle 4: max grad = 2.455050e-05 ; sigma = 1.421085e-13
Product_state fixed-point CI iteration converged after 4 cycles
Entering product-state fixed-point CI iteration
Cycle 0: max grad = 1.011831e+03 ; sigma = 0.000000e+00
Cycle 1: max grad = 7.852752e-12 ; sigma = 1.314504e-13
Product_state fixed-point CI iteration converged after 1 cycles
Entering product-state fixed-point CI iteration
Cycle 0: max grad = 1.535288e+03 ; sigma = 0.000000e+00
Cycle 1: max grad = 2.306033e-06 ; sigma = 6.892265e-11
Product_state fixed-point CI iteration converged after 1 cycles
Entering product-state fixed-point CI iteration
Cycle 0: max grad = 1.491494e+03 ; sigma = 0.000000e+00
Cycle 1: max grad = 1.837032e-03 ; sigma = 1.082867e-11
Cycle 2: max grad = 6.074521e-04 ; sigma = 2.131628e-14
Cycle 3: max grad = 2.259119e-04 ; sigma = 4.263256e-14
Cycle 4: max grad = 3.754243e-05 ; sigma = 4.263256e-14
Product_state fixed-point CI iteration converged after 4 cycles
Entering product-state fixed-point CI iteration
Cycle 0: max grad = 1.011792e+03 ; sigma = 0.000000e+00
Cycle 1: max grad = 8.544357e-12 ; sigma = 2.486900e-14
Product_state fixed-point CI iteration converged after 1 cycles
LASSCF state-average energy = -3971.8901852523
LASSCF state 0 energy = -3971.8901852523
LASSCF state 1 energy = -3971.89049467751
LASSCF state 2 energy = -3971.89062733986
LASSCF state 3 energy = -3971.89058311563
LASSCF state 4 energy = -3971.89036204611
LASSCF state 5 energy = -3969.48093908276
LASSCF state 6 energy = -3970.98995513768
LASSCF state 7 energy = -3969.56927764107
LASSCF state 8 energy = -3971.51229990126
LASSCF state 9 energy = -3969.35154310363
LASSCF state 10 energy = -3971.64263382626
LASSCF state 11 energy = -3969.48199401442
LASSCF state 12 energy = -3970.99011278572
LASSCF state 13 energy = -3969.56971596372
LASSCF state 14 energy = -3971.5128970515
LASSCF state 15 energy = -3969.3522756948
LASSCF state 16 energy = -3971.6431247517
LASSCF state 17 energy = -3969.48258018069
LASSCF state 18 energy = -3970.9901443395
LASSCF state 19 energy = -3969.56980395125
LASSCF state 20 energy = -3971.51302003568
LASSCF state 21 energy = -3969.35242468793
LASSCF state 22 energy = -3971.64322411905
LASSCF state 23 energy = -3969.48269742185
LASSCF state 24 energy = -3970.99004970238
LASSCF state 25 energy = -3969.56954031221
LASSCF state 26 energy = -3971.51265466075
LASSCF state 27 energy = -3969.35198011903
LASSCF state 28 energy = -3971.64292719396
LASSCF state 29 energy = -3969.48234570627
LASSCF state 30 energy = -3969.56892890989
LASSCF state 31 energy = -3971.6422482803
LASSCF state 32 energy = -3969.48152512913
LASSI op_o0 memory check: 4103536.056192 MB needed of 119944.99072 MB available (128000 MB max)
Symmetry analysis of 33 LAS rootspaces:
 ix            Energy  <S**2>  Neleca  Nelecb  Nelec   Wfnsym
  0  -3971.8901852523   4.750       6       5      11       A
  1  -3971.8904946775  11.750       6       5      11       A
  2  -3971.8906273399  14.750       6       5      11       A
  3  -3971.8905831156  13.750       6       5      11       A
  4  -3971.8903620461   8.750       6       5      11       A
  5  -3969.4809390828   5.750       6       5      11       A
  6  -3970.9899551377   3.750       6       5      11       A
  7  -3969.5692776411   8.750       6       5      11       A
  8  -3971.5122999013   3.750       6       5      11       A
  9  -3969.3515431036   9.750       6       5      11       A
 10  -3971.6426338263   8.750       6       5      11       A
 11  -3969.4819940144  14.750       6       5      11       A
 12  -3970.9901127857   8.750       6       5      11       A
 13  -3969.5697159637  13.750       6       5      11       A
 14  -3971.5128970515   8.750       6       5      11       A
 15  -3969.3522756948  14.750       6       5      11       A
 16  -3971.6431247517  13.750       6       5      11       A
 17  -3969.4825801807  19.750       6       5      11       A
 18  -3970.9901443395   9.750       6       5      11       A
 19  -3969.5698039513  14.750       6       5      11       A
 20  -3971.5130200357   9.750       6       5      11       A
 21  -3969.3524246879  15.750       6       5      11       A
 22  -3971.6432241191  14.750       6       5      11       A
 23  -3969.4826974219  20.750       6       5      11       A
 24  -3970.9900497024   6.750       6       5      11       A
 25  -3969.5695403122  11.750       6       5      11       A
 26  -3971.5126546607   6.750       6       5      11       A
 27  -3969.3519801190  12.750       6       5      11       A
 28  -3971.6429271940  11.750       6       5      11       A
 29  -3969.4823457063  17.750       6       5      11       A
 30  -3969.5689289099   4.750       6       5      11       A
 31  -3971.6422482803   4.750       6       5      11       A
 32  -3969.4815251291  10.750       6       5      11       A
Build + diag H matrix LASSI symmetry block 0
['neleca', 'nelecb', 'irrep'] = (6, 5, 0)
(33 rootspaces; 14553 states)
LASSI eigenvalues (14553 total):
 ix            Energy  <S**2>  Neleca  Nelecb  Wfnsym
  0  -3971.8918682266   0.750       6       5       A
  1  -3971.8917987921   3.750       6       5       A
  2  -3971.8916841637   8.750       6       5       A
  3  -3971.8915276496  15.750       6       5       A
  4  -3971.8913334662  24.750       6       5       A
  5  -3971.8721951102   0.750       6       5       A
  6  -3971.8720812098   3.750       6       5       A
  7  -3971.8718907553   8.750       6       5       A
  8  -3971.8716226286  15.750       6       5       A
  9  -3971.8712751705  24.750       6       5       A
 10  -3971.8710357610   0.750       6       5       A
 11  -3971.8709409247   3.750       6       5       A
 12  -3971.8707826635   8.750       6       5       A
 13  -3971.8705583161  15.750       6       5       A
 14  -3971.8702646859  24.750       6       5       A
 15  -3971.8472946960  24.750       6       5       A
 16  -3971.8471882469  15.750       6       5       A
 17  -3971.8471005430   8.749       6       5       A
 18  -3971.8470354496   3.748       6       5       A
 19  -3971.8469960923   0.753       6       5       A
 20  -3971.8255608184   0.750       6       5       A
 21  -3971.8254433820   3.750       6       5       A
 22  -3971.8252467363   8.750       6       5       A
 23  -3971.8249688964  15.750       6       5       A
 24  -3971.8246071791  24.750       6       5       A
 25  -3971.6436033138  24.750       6       5       A
 26  -3971.6429101080  15.750       6       5       A
 27  -3971.6423981462   8.750       6       5       A
 28  -3971.6420473550   3.750       6       5       A
 29  -3971.6418429028   0.750       6       5       A
 30  -3971.6416940558  24.750       6       5       A
 31  -3971.6405372865  15.750       6       5       A
 32  -3971.6396278301   8.750       6       5       A
 33  -3971.6389729385   3.750       6       5       A
 34  -3971.6385778713   0.750       6       5       A
 35  -3971.6357267059  24.750       6       5       A
 36  -3971.6345352763  15.750       6       5       A
 37  -3971.6335955933   8.750       6       5       A
 38  -3971.6329177112   3.750       6       5       A
 39  -3971.6325083908   0.750       6       5       A
 40  -3971.6269335497  24.750       6       5       A
 41  -3971.6265134616  15.750       6       5       A
 42  -3971.6261510906   8.750       6       5       A
 43  -3971.6258724593   3.750       6       5       A
 44  -3971.6256971829   0.750       6       5       A
 45  -3971.6008165176  24.750       6       5       A
 46  -3971.5994962406  15.750       6       5       A
 47  -3971.5984621038   8.750       6       5       A
 48  -3971.5977194726   3.750       6       5       A
 49  -3971.5972722834   0.750       6       5       A
 50  -3971.5140584665  15.750       6       5       A
 51  -3971.5134023205   8.750       6       5       A
 52  -3971.5129815789   3.750       6       5       A
 53  -3971.5127473140   0.750       6       5       A
 54  -3971.5120870380  15.750       6       5       A
 55  -3971.5116825738   8.750       6       5       A
 56  -3971.5115064122  15.750       6       5       A
 57  -3971.5114142758   3.750       6       5       A
 58  -3971.5112610968   0.750       6       5       A
 59  -3971.5102230353   8.750       6       5       A
 60  -3971.5101088601  15.750       6       5       A
 61  -3971.5095262378  15.750       6       5       A
 62  -3971.5095184694   8.750       6       5       A
 63  -3971.5093514549   3.750       6       5       A
 64  -3971.5091123590   3.750       6       5       A
 65  -3971.5088753808   0.750       6       5       A
 66  -3971.5088487886   0.750       6       5       A
 67  -3971.5088218494   8.750       6       5       A
 68  -3971.5083365799   3.750       6       5       A
 69  -3971.5080524322   0.750       6       5       A
 70  -3971.5076151194  15.750       6       5       A
 71  -3971.5065450871   8.750       6       5       A
 72  -3971.5057496400   3.750       6       5       A
 73  -3971.5055188063  15.750       6       5       A
 74  -3971.5052576018   0.750       6       5       A
 75  -3971.5042099064   8.750       6       5       A
 76  -3971.5035294071  15.750       6       5       A
 77  -3971.5033192910   3.750       6       5       A
 78  -3971.5028047863   0.750       6       5       A
 79  -3971.5027519441   8.750       6       5       A
 80  -3971.5022129384   3.750       6       5       A
 81  -3971.5018957862   0.750       6       5       A
 82  -3971.5016707603  15.750       6       5       A
 83  -3971.5005743944   8.750       6       5       A
 84  -3971.4997632622   3.750       6       5       A
 85  -3971.4992632003   0.750       6       5       A
 86  -3971.4974945607  15.750       6       5       A
 87  -3971.4969006391   8.750       6       5       A
 88  -3971.4964617040   3.750       6       5       A
 89  -3971.4961943340   0.750       6       5       A
 90  -3971.4959846128  15.750       6       5       A
 91  -3971.4956118270   8.750       6       5       A
 92  -3971.4953782661   3.750       6       5       A
 93  -3971.4952478810   0.750       6       5       A
 94  -3971.4945867068  15.750       6       5       A
 95  -3971.4944935946  15.750       6       5       A
 96  -3971.4941212445   8.750       6       5       A
 97  -3971.4938743074   8.750       6       5       A
 98  -3971.4937707812   3.750       6       5       A
 99  -3971.4935599200  15.750       6       5       A
Remaining 14453 eigenvalues truncated; increase verbosity to print them all
Natural-orbital analysis for state(s) [0, 1, 2, 3, 4]
LASSI op_o0 memory check: 4103536.056192 MB needed of 116188.258304 MB available (128000 MB max)
Delocalized natural orbitals do not reflect LAS fragmentation
Natural occ [1.98726125 1.03583439 1.01778165 1.01506289 1.00156214 0.99778458
 0.99273327 0.97869422 0.97611414 0.95830864 0.0119625  0.00423093
 0.00407191 0.00389594 0.00347786 0.00229685 0.00229014 0.00227355
 0.00224954 0.0021136 ]
Natural orbital (expansion on AOs) in CAS space
               #1        #2        #3        #4        #5       
0 O 1s          -0.00011  -0.00010   0.00012   0.00036  -0.00026
0 O 2s           0.00160   0.00144  -0.00061   0.00129   0.00125
0 O 3s           0.00057   0.00047  -0.00025   0.00026   0.00047
0 O 4s           0.00478   0.00309  -0.00094  -0.00403   0.00429
0 O 2px          0.00476   0.00149  -0.00002   0.00531  -0.00059
0 O 2py          0.00048  -0.00095   0.00179   0.00188  -0.00196
0 O 2pz          0.00216   0.00076  -0.00160  -0.00241   0.00137
0 O 3px          0.00568   0.00200   0.00016   0.00630  -0.00043
0 O 3py          0.00040  -0.00099   0.00178   0.00191  -0.00214
0 O 3pz          0.00283   0.00081  -0.00177  -0.00284   0.00140
0 O 4px          0.00790   0.00163  -0.00032   0.00679  -0.00164
0 O 4py          0.00002  -0.00251   0.00418   0.00379  -0.00384
0 O 4pz          0.00398   0.00182  -0.00381  -0.00218   0.00297
0 O 3dxy         0.00012   0.00003  -0.00005   0.00002  -0.00001
0 O 3dyz         0.00007   0.00003   0.00001   0.00005   0.00002
0 O 3dz^2       -0.00003  -0.00001  -0.00002  -0.00008  -0.00000
0 O 3dxz        -0.00004   0.00002   0.00001   0.00001   0.00006
0 O 3dx2-y2      0.00004   0.00001  -0.00003  -0.00007   0.00002
0 O 4dxy         0.00026  -0.00019  -0.00007  -0.00012  -0.00033
0 O 4dyz         0.00011   0.00028  -0.00001   0.00017   0.00041
0 O 4dz^2       -0.00016  -0.00020   0.00013  -0.00010  -0.00023
0 O 4dxz         0.00015   0.00007  -0.00006   0.00035   0.00020
0 O 4dx2-y2     -0.00017  -0.00003   0.00007  -0.00013  -0.00019
0 O 4f-3         0.00003   0.00003  -0.00004  -0.00002   0.00006
0 O 4f-2         0.00003  -0.00001  -0.00003  -0.00006  -0.00003
0 O 4f-1        -0.00001   0.00004  -0.00002   0.00003   0.00007
0 O 4f+0         0.00001   0.00002   0.00002   0.00005   0.00003
0 O 4f+1        -0.00001  -0.00000   0.00001  -0.00003  -0.00001
0 O 4f+2         0.00000   0.00002   0.00003   0.00009   0.00004
0 O 4f+3         0.00003  -0.00002  -0.00002  -0.00004  -0.00007
1 O 1s           0.00030   0.00012   0.00019   0.00016  -0.00008
1 O 2s           0.00692  -0.00865   0.00123   0.00106  -0.02353
1 O 3s           0.00195  -0.00253   0.00022   0.00021  -0.00680
1 O 4s           0.01121  -0.01785  -0.00076  -0.00037  -0.04057
1 O 2px         -0.00520  -0.00918   0.00693  -0.00066  -0.01487
1 O 2py         -0.00725  -0.00212   0.00864   0.00831  -0.00151
1 O 2pz         -0.00492   0.00554  -0.00464  -0.01186   0.01882
1 O 3px         -0.00588  -0.01194   0.00899  -0.00063  -0.01914
1 O 3py         -0.00813  -0.00286   0.01054   0.01040  -0.00313
1 O 3pz         -0.00598   0.00757  -0.00610  -0.01494   0.02436
1 O 4px         -0.01105  -0.01303   0.00779   0.00002  -0.02066
1 O 4py         -0.01202  -0.00529   0.01222   0.00886  -0.00434
1 O 4pz         -0.00705   0.00801  -0.00484  -0.01783   0.02716
1 O 3dxy         0.00024  -0.00017  -0.00027  -0.00043  -0.00039
1 O 3dyz        -0.00086   0.00001   0.00034   0.00022   0.00044
1 O 3dz^2       -0.00066   0.00003  -0.00005  -0.00060   0.00033
1 O 3dxz         0.00003  -0.00044   0.00009   0.00004  -0.00090
1 O 3dx2-y2      0.00051   0.00035  -0.00029   0.00001   0.00029
1 O 4dxy         0.00038  -0.00055  -0.00095  -0.00109  -0.00090
1 O 4dyz        -0.00243  -0.00001   0.00086   0.00057   0.00116
1 O 4dz^2       -0.00268  -0.00015  -0.00006  -0.00205   0.00065
1 O 4dxz        -0.00055  -0.00096   0.00048   0.00038  -0.00196
1 O 4dx2-y2      0.00215   0.00129  -0.00116   0.00044   0.00091
1 O 4f-3         0.00024   0.00014  -0.00025  -0.00000   0.00017
1 O 4f-2        -0.00013  -0.00013   0.00019   0.00016  -0.00033
1 O 4f-1         0.00007   0.00004  -0.00009  -0.00037   0.00018
1 O 4f+0         0.00040  -0.00000  -0.00008   0.00009  -0.00008
1 O 4f+1        -0.00010   0.00013   0.00002  -0.00001   0.00025
1 O 4f+2         0.00014  -0.00014  -0.00009  -0.00011  -0.00024
1 O 4f+3        -0.00006   0.00012   0.00009   0.00021   0.00013
2 C 1s          -0.00026   0.00026   0.00024   0.00037   0.00062
2 C 2s          -0.00604   0.00267   0.00351   0.00448   0.00812
2 C 3s          -0.00886   0.00120   0.00325   0.00793   0.00351
2 C 2px         -0.01694  -0.00193   0.00562  -0.00270   0.00599
2 C 2py          0.00308  -0.00537  -0.00152  -0.00297  -0.01235
2 C 2pz         -0.00532  -0.00455  -0.00057  -0.00891  -0.00534
2 C 3px         -0.01325  -0.00121   0.00145  -0.00447   0.00324
2 C 3py         -0.00036  -0.00403   0.00374  -0.00021  -0.00681
2 C 3pz         -0.00496  -0.00323   0.00240  -0.00458  -0.00340
2 C 3dxy         0.00216   0.00045  -0.00057   0.00107  -0.00061
2 C 3dyz         0.00083   0.00022   0.00021   0.00142  -0.00011
2 C 3dz^2        0.00092  -0.00090   0.00086   0.00150  -0.00241
2 C 3dxz        -0.00031   0.00090  -0.00073  -0.00064   0.00208
2 C 3dx2-y2     -0.00063  -0.00187   0.00175   0.00107  -0.00337
3 H 1s           0.00137  -0.00379   0.00287   0.00384  -0.00934
3 H 2s           0.00133  -0.00397   0.00301   0.00489  -0.01140
3 H 2px         -0.00050   0.00002   0.00013   0.00003   0.00026
3 H 2py          0.00000  -0.00015  -0.00012  -0.00003  -0.00032
3 H 2pz          0.00000  -0.00018  -0.00006  -0.00022  -0.00025
4 O 1s           0.00022   0.00007   0.00002  -0.00008  -0.00004
4 O 2s          -0.00050  -0.00883  -0.00023  -0.00802  -0.02763
4 O 3s          -0.00027  -0.00254  -0.00012  -0.00217  -0.00773
4 O 4s          -0.00312  -0.01379  -0.00078  -0.01196  -0.04075
4 O 2px          0.00043  -0.00756  -0.00806   0.00694  -0.00328
4 O 2py          0.00059   0.00413  -0.00728   0.01686   0.02919
4 O 2pz         -0.00004  -0.00230   0.00399  -0.00673  -0.02080
4 O 3px          0.00063  -0.00924  -0.01012   0.00879  -0.00327
4 O 3py          0.00045   0.00533  -0.00965   0.02198   0.03745
4 O 3pz         -0.00010  -0.00325   0.00520  -0.00909  -0.02727
4 O 4px         -0.00086  -0.00725  -0.00895   0.00973   0.00190
4 O 4py          0.00412   0.00499  -0.00822   0.02026   0.03517
4 O 4pz         -0.00139  -0.00305   0.00421  -0.00757  -0.02741
4 O 3dxy         0.00002  -0.00046  -0.00025  -0.00006  -0.00085
4 O 3dyz        -0.00002  -0.00008   0.00005  -0.00013  -0.00049
4 O 3dz^2        0.00001  -0.00021  -0.00011  -0.00010  -0.00036
4 O 3dxz        -0.00004   0.00021   0.00008  -0.00010   0.00038
4 O 3dx2-y2     -0.00006   0.00013   0.00028  -0.00048  -0.00027
4 O 4dxy        -0.00004  -0.00089  -0.00034  -0.00062  -0.00171
4 O 4dyz         0.00002   0.00023   0.00033  -0.00027  -0.00059
4 O 4dz^2       -0.00016  -0.00051  -0.00008  -0.00015  -0.00068
4 O 4dxz         0.00005   0.00070   0.00004  -0.00009   0.00128
4 O 4dx2-y2      0.00004   0.00049   0.00118  -0.00162  -0.00092
4 O 4f-3        -0.00003   0.00021   0.00004   0.00008   0.00039
4 O 4f-2         0.00002  -0.00012  -0.00012   0.00010   0.00017
4 O 4f-1         0.00000  -0.00005   0.00002  -0.00010  -0.00029
4 O 4f+0         0.00001  -0.00000   0.00003  -0.00005   0.00000
4 O 4f+1        -0.00001   0.00018   0.00008  -0.00005   0.00011
4 O 4f+2         0.00002  -0.00007   0.00007  -0.00014  -0.00038
4 O 4f+3         0.00004  -0.00010  -0.00025   0.00029   0.00025
5 O 1s          -0.00012   0.00019   0.00012  -0.00016  -0.00012
5 O 2s           0.00061   0.00104  -0.00070   0.00096   0.00217
5 O 3s           0.00023   0.00023  -0.00022   0.00031   0.00068
5 O 4s           0.00384   0.00034  -0.00148   0.00367   0.00086
5 O 2px          0.00010  -0.00006  -0.00175   0.00117   0.00217
5 O 2py         -0.00133   0.00078   0.00141  -0.00044   0.00188
5 O 2pz          0.00070   0.00108   0.00155  -0.00321  -0.00274
5 O 3px          0.00031  -0.00008  -0.00201   0.00106   0.00236
5 O 3py         -0.00169   0.00082   0.00182  -0.00112   0.00184
5 O 3pz          0.00059   0.00139   0.00181  -0.00366  -0.00295
5 O 4px          0.00047   0.00027  -0.00338   0.00246   0.00253
5 O 4py         -0.00212   0.00139   0.00152   0.00047   0.00391
5 O 4pz          0.00226   0.00205   0.00254  -0.00495  -0.00449
5 O 3dxy        -0.00000  -0.00002  -0.00005   0.00003   0.00001
5 O 3dyz         0.00002   0.00005  -0.00001   0.00001   0.00007
5 O 3dz^2       -0.00002  -0.00003  -0.00001  -0.00002   0.00001
5 O 3dxz         0.00001   0.00001   0.00001   0.00006   0.00002
5 O 3dx2-y2      0.00000   0.00004   0.00001  -0.00004   0.00002
5 O 4dxy         0.00002  -0.00005   0.00015  -0.00008  -0.00051
5 O 4dyz         0.00016   0.00026   0.00007   0.00009   0.00052
5 O 4dz^2        0.00004   0.00001   0.00008  -0.00034  -0.00031
5 O 4dxz         0.00002   0.00007   0.00006  -0.00005   0.00016
5 O 4dx2-y2      0.00029   0.00027  -0.00013   0.00024   0.00051
5 O 4f-3        -0.00002  -0.00002  -0.00000  -0.00002  -0.00008
5 O 4f-2         0.00002   0.00005   0.00001  -0.00001   0.00008
5 O 4f-1        -0.00000  -0.00002  -0.00000   0.00001  -0.00001
5 O 4f+0         0.00001   0.00001  -0.00003   0.00004   0.00004
5 O 4f+1        -0.00001  -0.00004   0.00000  -0.00003  -0.00008
5 O 4f+2         0.00001   0.00002   0.00006  -0.00003  -0.00006
5 O 4f+3         0.00002   0.00004  -0.00003   0.00004   0.00012
6 C 1s           0.00007   0.00037  -0.00016  -0.00020   0.00048
6 C 2s           0.00002   0.00574   0.00227  -0.00041   0.00894
6 C 3s          -0.00351   0.00214   0.00565  -0.00094   0.00607
6 C 2px          0.00048   0.00738   0.00224   0.00442   0.01595
6 C 2py          0.00047  -0.00709  -0.00423   0.00285  -0.01119
6 C 2pz          0.00019   0.00130  -0.00101   0.00398   0.00235
6 C 3px         -0.00106   0.00105  -0.00254   0.00422   0.00544
6 C 3py          0.00245  -0.00242  -0.00279  -0.00163  -0.00976
6 C 3pz         -0.00075   0.00074   0.00069   0.00332   0.00520
6 C 3dxy         0.00034  -0.00077  -0.00113   0.00119  -0.00026
6 C 3dyz        -0.00013   0.00069  -0.00040   0.00048   0.00261
6 C 3dz^2        0.00020  -0.00039   0.00007  -0.00066  -0.00160
6 C 3dxz         0.00016  -0.00021   0.00059  -0.00081  -0.00254
6 C 3dx2-y2     -0.00022   0.00053  -0.00153   0.00282   0.00516
7 H 1s           0.00030  -0.00271   0.00202  -0.00593  -0.01383
7 H 2s          -0.00124  -0.00144   0.00339  -0.00455  -0.00954
7 H 2px          0.00011   0.00019   0.00015   0.00000   0.00028
7 H 2py          0.00003  -0.00014  -0.00005   0.00023  -0.00009
7 H 2pz         -0.00005  -0.00001  -0.00005   0.00002  -0.00005
8 O 1s          -0.00007  -0.00039  -0.00008  -0.00009  -0.00001
8 O 2s          -0.00875  -0.00663  -0.01463   0.00341   0.02395
8 O 3s          -0.00264  -0.00172  -0.00429   0.00099   0.00697
8 O 4s          -0.02112  -0.00949  -0.02410   0.00490   0.03815
8 O 2px          0.00509   0.00792   0.00835   0.00435  -0.01067
8 O 2py          0.00902  -0.01143   0.00511   0.00167   0.01680
8 O 2pz         -0.00536   0.00618   0.00662  -0.01071  -0.01313
8 O 3px          0.00598   0.01039   0.01044   0.00498  -0.01431
8 O 3py          0.01031  -0.01482   0.00554   0.00240   0.02259
8 O 3pz         -0.00597   0.00848   0.00874  -0.01396  -0.01783
8 O 4px          0.00477   0.00966   0.00970   0.00433  -0.01470
8 O 4py          0.01315  -0.01628   0.00482   0.00129   0.02399
8 O 4pz         -0.01101   0.00625   0.00926  -0.01525  -0.01837
8 O 3dxy         0.00032  -0.00063   0.00028  -0.00008   0.00048
8 O 3dyz         0.00043  -0.00029   0.00011   0.00003   0.00034
8 O 3dz^2       -0.00048  -0.00020  -0.00015  -0.00062   0.00006
8 O 3dxz         0.00047   0.00008   0.00067  -0.00050  -0.00076
8 O 3dx2-y2      0.00097   0.00028   0.00071   0.00028  -0.00041
8 O 4dxy         0.00040  -0.00206   0.00084  -0.00021   0.00240
8 O 4dyz         0.00192  -0.00110   0.00042   0.00020   0.00076
8 O 4dz^2       -0.00094  -0.00063  -0.00008  -0.00263  -0.00020
8 O 4dxz         0.00101  -0.00000   0.00170  -0.00215  -0.00258
8 O 4dx2-y2      0.00253   0.00102   0.00189   0.00081  -0.00151
8 O 4f-3         0.00054   0.00012   0.00028   0.00018   0.00003
8 O 4f-2         0.00009   0.00019   0.00026  -0.00022  -0.00045
8 O 4f-1        -0.00028   0.00005   0.00008  -0.00037  -0.00024
8 O 4f+0        -0.00001   0.00012  -0.00004   0.00020  -0.00013
8 O 4f+1        -0.00026   0.00001  -0.00014   0.00006   0.00003
8 O 4f+2        -0.00053   0.00015  -0.00006  -0.00015  -0.00022
8 O 4f+3        -0.00015   0.00036  -0.00007   0.00005  -0.00055
9 O 1s          -0.00012   0.00019  -0.00012  -0.00015   0.00012
9 O 2s           0.00061   0.00104   0.00070   0.00096  -0.00217
9 O 3s           0.00023   0.00023   0.00022   0.00030  -0.00068
9 O 4s           0.00384   0.00034   0.00149   0.00367  -0.00086
9 O 2px         -0.00014  -0.00032   0.00205   0.00198  -0.00291
9 O 2py         -0.00109   0.00104  -0.00171  -0.00125  -0.00115
9 O 2pz         -0.00103  -0.00077   0.00057   0.00252  -0.00245
9 O 3px          0.00007  -0.00043   0.00236   0.00197  -0.00314
9 O 3py         -0.00145   0.00116  -0.00217  -0.00203  -0.00105
9 O 3pz         -0.00109  -0.00104   0.00062   0.00278  -0.00258
9 O 4px         -0.00025  -0.00025   0.00388   0.00373  -0.00381
9 O 4py         -0.00141   0.00191  -0.00202  -0.00081  -0.00263
9 O 4pz         -0.00279  -0.00159   0.00100   0.00402  -0.00452
9 O 3dxy        -0.00000  -0.00002   0.00004   0.00004   0.00000
9 O 3dyz        -0.00001  -0.00003  -0.00002  -0.00000   0.00008
9 O 3dz^2       -0.00001  -0.00005  -0.00001   0.00001   0.00002
9 O 3dxz        -0.00002  -0.00004   0.00002  -0.00004   0.00002
9 O 3dx2-y2     -0.00001   0.00002  -0.00001  -0.00006   0.00001
9 O 4dxy        -0.00002  -0.00010  -0.00013  -0.00006   0.00052
9 O 4dyz        -0.00024  -0.00029   0.00009   0.00004   0.00032
9 O 4dz^2       -0.00003  -0.00007  -0.00004  -0.00031   0.00033
9 O 4dxz        -0.00008  -0.00016  -0.00005  -0.00021   0.00059
9 O 4dx2-y2      0.00022   0.00015   0.00016   0.00021  -0.00028
9 O 4f-3        -0.00002  -0.00003  -0.00001  -0.00002   0.00010
9 O 4f-2        -0.00000  -0.00003   0.00001   0.00002   0.00004
9 O 4f-1         0.00002   0.00001  -0.00001   0.00001  -0.00003
9 O 4f+0         0.00000   0.00002  -0.00001  -0.00000  -0.00004
9 O 4f+1        -0.00001  -0.00004  -0.00003  -0.00004   0.00011
9 O 4f+2        -0.00003  -0.00005   0.00003  -0.00000   0.00006
9 O 4f+3         0.00001   0.00001   0.00005   0.00005  -0.00010
10 O 1s          0.00022   0.00007  -0.00002  -0.00008   0.00004
10 O 2s         -0.00050  -0.00883   0.00023  -0.00802   0.02763
10 O 3s         -0.00027  -0.00254   0.00012  -0.00217   0.00773
10 O 4s         -0.00312  -0.01379   0.00078  -0.01196   0.04074
10 O 2px         0.00045  -0.00648   0.00912   0.00915  -0.00365
10 O 2py         0.00057   0.00305   0.00623   0.01465  -0.02226
10 O 2pz         0.00007   0.00531   0.00347   0.00892  -0.02804
10 O 3px         0.00065  -0.00779   0.01152   0.01178  -0.00574
10 O 3py         0.00043   0.00388   0.00825   0.01899  -0.02843
10 O 3pz         0.00005   0.00697   0.00466   0.01198  -0.03626
10 O 4px        -0.00029  -0.00594   0.01007   0.01220  -0.01066
10 O 4py         0.00355   0.00368   0.00710   0.01779  -0.02641
10 O 4pz         0.00264   0.00615   0.00369   0.00985  -0.03436
10 O 3dxy        0.00001  -0.00033   0.00021  -0.00003   0.00052
10 O 3dyz        0.00003   0.00022   0.00002   0.00031  -0.00080
10 O 3dz^2      -0.00000   0.00002   0.00004  -0.00005  -0.00021
10 O 3dxz        0.00006  -0.00041   0.00025   0.00016   0.00056
10 O 3dx2-y2    -0.00004   0.00008  -0.00023  -0.00038   0.00022
10 O 4dxy       -0.00001  -0.00064   0.00038  -0.00050   0.00103
10 O 4dyz        0.00005   0.00005   0.00047   0.00089  -0.00131
10 O 4dz^2      -0.00010  -0.00008   0.00015   0.00005  -0.00050
10 O 4dxz       -0.00013  -0.00117   0.00051   0.00032   0.00146
10 O 4dx2-y2     0.00002   0.00020  -0.00099  -0.00140   0.00104
10 O 4f-3       -0.00002   0.00018  -0.00009   0.00001  -0.00017
10 O 4f-2       -0.00001  -0.00003  -0.00014  -0.00021   0.00046
10 O 4f-1        0.00003  -0.00008   0.00001  -0.00008   0.00021
10 O 4f+0        0.00001  -0.00015   0.00009   0.00004   0.00015
10 O 4f+1       -0.00000   0.00008  -0.00010  -0.00012   0.00025
10 O 4f+2       -0.00004   0.00019  -0.00008  -0.00003  -0.00024
10 O 4f+3        0.00003  -0.00004   0.00020   0.00025  -0.00025
11 C 1s          0.00007   0.00037   0.00016  -0.00020  -0.00048
11 C 2s          0.00002   0.00574  -0.00227  -0.00041  -0.00894
11 C 3s         -0.00351   0.00214  -0.00565  -0.00094  -0.00607
11 C 2px         0.00043   0.00647  -0.00227   0.00327  -0.01426
11 C 2py         0.00052  -0.00617   0.00425   0.00399   0.00950
11 C 2pz        -0.00018  -0.00514   0.00083  -0.00410   0.00956
11 C 3px        -0.00072   0.00072   0.00274   0.00308  -0.00343
11 C 3py         0.00211  -0.00208   0.00259  -0.00049   0.00775
11 C 3pz         0.00165  -0.00163   0.00070  -0.00466   0.00894
11 C 3dxy        0.00036  -0.00089   0.00081   0.00086   0.00133
11 C 3dyz       -0.00003  -0.00031  -0.00093  -0.00108   0.00248
11 C 3dz^2       0.00024  -0.00060  -0.00064  -0.00123   0.00345
11 C 3dxz        0.00011  -0.00042   0.00027  -0.00015   0.00039
11 C 3dx2-y2    -0.00021   0.00035   0.00147   0.00269  -0.00475
12 H 1s          0.00030  -0.00271  -0.00202  -0.00593   0.01383
12 H 2s         -0.00124  -0.00144  -0.00339  -0.00455   0.00954
12 H 2px         0.00012   0.00018  -0.00016   0.00000  -0.00028
12 H 2py         0.00002  -0.00013   0.00006   0.00023   0.00009
12 H 2pz         0.00002  -0.00008   0.00001   0.00004   0.00006
13 O 1s          0.00030   0.00012  -0.00019   0.00016   0.00008
13 O 2s          0.00692  -0.00865  -0.00123   0.00105   0.02353
13 O 3s          0.00195  -0.00253  -0.00022   0.00021   0.00680
13 O 4s          0.01121  -0.01785   0.00076  -0.00037   0.04057
13 O 2px        -0.00394  -0.01042  -0.00826   0.00292   0.01948
13 O 2py        -0.00851  -0.00088  -0.00731   0.00473  -0.00311
13 O 2pz         0.00398  -0.00318  -0.00475   0.01339   0.01373
13 O 3px        -0.00434  -0.01365  -0.01072   0.00387   0.02516
13 O 3py        -0.00968  -0.00115  -0.00882   0.00590  -0.00289
13 O 3pz         0.00490  -0.00450  -0.00606   0.01679   0.01811
13 O 4px        -0.00917  -0.01491  -0.00928   0.00522   0.02744
13 O 4py        -0.01391  -0.00340  -0.01073   0.00366  -0.00243
13 O 4pz         0.00624  -0.00528  -0.00568   0.01886   0.02061
13 O 3dxy        0.00052  -0.00028   0.00031  -0.00037   0.00074
13 O 3dyz        0.00078  -0.00002   0.00012   0.00018   0.00038
13 O 3dz^2      -0.00016  -0.00016   0.00011  -0.00049   0.00028
13 O 3dxz       -0.00029   0.00023   0.00012  -0.00043  -0.00065
13 O 3dx2-y2     0.00070   0.00044   0.00039  -0.00006  -0.00039
13 O 4dxy        0.00117  -0.00073   0.00097  -0.00079   0.00170
13 O 4dyz        0.00252  -0.00004   0.00017   0.00054   0.00103
13 O 4dz^2      -0.00131  -0.00046   0.00010  -0.00153   0.00074
13 O 4dxz       -0.00095   0.00023   0.00043  -0.00166  -0.00127
13 O 4dx2-y2     0.00279   0.00145   0.00144   0.00015  -0.00106
13 O 4f-3        0.00032   0.00010   0.00031  -0.00008  -0.00014
13 O 4f-2        0.00020  -0.00002   0.00015  -0.00027  -0.00010
13 O 4f-1        0.00024  -0.00003   0.00005  -0.00014   0.00007
13 O 4f+0       -0.00016  -0.00007  -0.00003  -0.00020   0.00007
13 O 4f+1       -0.00020   0.00006   0.00003  -0.00023  -0.00023
13 O 4f+2       -0.00002   0.00017   0.00007  -0.00013  -0.00036
13 O 4f+3       -0.00003   0.00019  -0.00004   0.00012  -0.00031
14 O 1s         -0.00011  -0.00010  -0.00012   0.00036   0.00026
14 O 2s          0.00160   0.00144   0.00061   0.00129  -0.00125
14 O 3s          0.00057   0.00047   0.00025   0.00026  -0.00047
14 O 4s          0.00478   0.00309   0.00094  -0.00403  -0.00429
14 O 2px         0.00401   0.00119  -0.00048   0.00584   0.00102
14 O 2py         0.00123  -0.00065  -0.00128   0.00136   0.00154
14 O 2pz        -0.00316  -0.00137  -0.00197   0.00129   0.00164
14 O 3px         0.00471   0.00166  -0.00071   0.00690   0.00087
14 O 3py         0.00138  -0.00065  -0.00124   0.00131   0.00169
14 O 3pz        -0.00405  -0.00156  -0.00207   0.00143   0.00176
14 O 4px         0.00651   0.00097  -0.00089   0.00727   0.00253
14 O 4py         0.00141  -0.00185  -0.00297   0.00331   0.00294
14 O 4pz        -0.00582  -0.00281  -0.00474   0.00120   0.00334
14 O 3dxy        0.00009   0.00003   0.00004   0.00002  -0.00001
14 O 3dyz       -0.00008  -0.00004  -0.00002   0.00001   0.00003
14 O 3dz^2      -0.00008  -0.00002   0.00001  -0.00008  -0.00001
14 O 3dxz        0.00003  -0.00002   0.00002  -0.00002   0.00006
14 O 3dx2-y2     0.00003  -0.00001   0.00004  -0.00008   0.00000
14 O 4dxy        0.00027  -0.00020   0.00009  -0.00005   0.00033
14 O 4dyz       -0.00006  -0.00009   0.00004  -0.00007   0.00012
14 O 4dz^2      -0.00014  -0.00022  -0.00009   0.00002   0.00023
14 O 4dxz       -0.00009  -0.00021  -0.00008  -0.00035   0.00034
14 O 4dx2-y2    -0.00023  -0.00013  -0.00008  -0.00026   0.00034
14 O 4f-3        0.00002   0.00004   0.00002   0.00004  -0.00008
14 O 4f-2       -0.00004   0.00003  -0.00004   0.00009  -0.00006
14 O 4f-1        0.00001   0.00004   0.00000   0.00005  -0.00005
14 O 4f+0        0.00001   0.00001   0.00004  -0.00001  -0.00001
14 O 4f+1       -0.00003  -0.00000  -0.00002   0.00002  -0.00001
14 O 4f+2       -0.00002   0.00002   0.00003  -0.00005  -0.00004
14 O 4f+3        0.00002  -0.00001   0.00002  -0.00004   0.00005
15 C 1s         -0.00026   0.00026  -0.00024   0.00037  -0.00062
15 C 2s         -0.00604   0.00267  -0.00351   0.00448  -0.00812
15 C 3s         -0.00886   0.00120  -0.00325   0.00793  -0.00352
15 C 2px        -0.01472  -0.00082  -0.00550  -0.00028  -0.00674
15 C 2py         0.00086  -0.00648   0.00140  -0.00539   0.01310
15 C 2pz         0.01037   0.00326   0.00142   0.00814   0.00007
15 C 3px        -0.01140  -0.00044  -0.00088  -0.00306  -0.00378
15 C 3py        -0.00222  -0.00480  -0.00430  -0.00162   0.00735
15 C 3pz         0.00809   0.00221   0.00159   0.00539  -0.00039
15 C 3dxy        0.00159   0.00071   0.00088   0.00028  -0.00030
15 C 3dyz       -0.00141   0.00051   0.00080  -0.00229  -0.00198
15 C 3dz^2      -0.00006  -0.00046  -0.00033   0.00013   0.00084
15 C 3dxz        0.00128  -0.00052  -0.00033   0.00100   0.00196
15 C 3dx2-y2    -0.00072  -0.00203  -0.00176   0.00078   0.00364
16 H 1s          0.00137  -0.00379  -0.00287   0.00384   0.00934
16 H 2s          0.00133  -0.00397  -0.00301   0.00489   0.01140
16 H 2px        -0.00048   0.00006  -0.00014   0.00009  -0.00030
16 H 2py        -0.00002  -0.00019   0.00013  -0.00009   0.00037
16 H 2pz         0.00014   0.00012   0.00001   0.00019  -0.00007
17 Fe 1s         0.00005   0.00002  -0.00000   0.00074  -0.00000
17 Fe 2s         0.00020   0.00006  -0.00000   0.00220  -0.00000
17 Fe 3s        -0.03037   0.00092  -0.00000   0.01010  -0.00000
17 Fe 4s        -0.02067  -0.03317   0.00000   0.04304   0.00000
17 Fe 5s        -0.01001  -0.00582   0.00000  -0.00356   0.00000
17 Fe 6s         0.00436   0.00126   0.00000   0.00427  -0.00000
17 Fe 7s        -0.03701  -0.01228  -0.00000  -0.02320   0.00000
17 Fe 2px       -0.00096  -0.00021   0.00002   0.00003  -0.00000
17 Fe 2py        0.00022  -0.00048  -0.00002   0.00054   0.00000
17 Fe 2pz        0.00017  -0.00004   0.00012   0.00007  -0.00002
17 Fe 3px       -0.02685  -0.00566   0.00029   0.00106  -0.00010
17 Fe 3py       -0.00131  -0.01456  -0.00029   0.00973   0.00010
17 Fe 3pz        0.00362  -0.00126   0.00202   0.00123  -0.00068
17 Fe 4px       -0.09670  -0.02709   0.00053   0.00683   0.00047
17 Fe 4py        0.06822   0.00291  -0.00053   0.07562  -0.00048
17 Fe 4pz        0.02339   0.00425   0.00374   0.00976   0.00335
17 Fe 5px        0.06157   0.03194  -0.00063  -0.00957   0.00000
17 Fe 5py       -0.06242   0.04185   0.00063  -0.07887   0.00000
17 Fe 5pz       -0.01758   0.00141  -0.00441  -0.00983   0.00000
17 Fe 6px       -0.00014   0.00012   0.00005  -0.00068   0.00003
17 Fe 6py        0.00248   0.00333  -0.00005   0.00079  -0.00003
17 Fe 6pz        0.00037   0.00046   0.00035   0.00021   0.00024
17 Fe 7px       -0.03372  -0.00187  -0.00120   0.00056  -0.00063
17 Fe 7py       -0.00827  -0.01147   0.00120  -0.00760   0.00063
17 Fe 7pz        0.00361  -0.00136  -0.00845  -0.00116  -0.00446
17 Fe 3dxy      -0.68948  -0.13826  -0.08953   0.44234   0.09164
17 Fe 3dyz       0.07244  -0.16244  -0.64929  -0.11758   0.00948
17 Fe 3dz^2      0.42531   0.46299  -0.15506   0.36027   0.15873
17 Fe 3dxz       0.08637   0.03368  -0.04341   0.19754  -0.61078
17 Fe 3dx2-y2   -0.55988   0.45398  -0.09823  -0.28193  -0.08527
17 Fe 4dxy      -0.01019   0.00483   0.00435  -0.01477  -0.00586
17 Fe 4dyz       0.00066   0.00682   0.02524   0.00424  -0.00703
17 Fe 4dz^2      0.00780  -0.01995   0.00754  -0.01278  -0.01015
17 Fe 4dxz       0.00164  -0.00196  -0.00421  -0.00667   0.03265
17 Fe 4dx2-y2   -0.00811  -0.01713   0.00298   0.00857   0.00363
17 Fe 5dxy      -0.00657   0.00037   0.00081  -0.00220  -0.00107
17 Fe 5dyz       0.00052   0.00129   0.00449   0.00076  -0.00169
17 Fe 5dz^2      0.00469  -0.00360   0.00141  -0.00225  -0.00185
17 Fe 5dxz       0.00098  -0.00045  -0.00100  -0.00104   0.00555
17 Fe 5dx2-y2   -0.00528  -0.00296   0.00049   0.00101   0.00055
17 Fe 6dxy      -0.05453  -0.00669  -0.00093   0.01535   0.00013
17 Fe 6dyz       0.00720  -0.00505  -0.01692  -0.00148  -0.00562
17 Fe 6dz^2      0.02576   0.01630  -0.00160   0.00578   0.00022
17 Fe 6dxz       0.00427   0.00132  -0.01065   0.00601  -0.00647
17 Fe 6dx2-y2   -0.04042   0.01313  -0.00391  -0.01598  -0.00171
17 Fe 4f-3       0.00024  -0.00002   0.00003   0.00011   0.00003
17 Fe 4f-2       0.00002  -0.00002  -0.00001  -0.00006   0.00020
17 Fe 4f-1      -0.00010  -0.00025   0.00006  -0.00009  -0.00005
17 Fe 4f+0       0.00001  -0.00007  -0.00006  -0.00004   0.00000
17 Fe 4f+1      -0.00012  -0.00008   0.00001   0.00000   0.00005
17 Fe 4f+2       0.00006  -0.00007  -0.00015  -0.00002   0.00002
17 Fe 4f+3      -0.00035  -0.00009  -0.00003   0.00009   0.00004
17 Fe 5f-3       0.00068  -0.00219   0.00037   0.00138   0.00013
17 Fe 5f-2       0.00037   0.00025   0.00067  -0.00035   0.00004
17 Fe 5f-1      -0.00024  -0.00202   0.00056   0.00012   0.00003
17 Fe 5f+0       0.00003  -0.00052  -0.00101  -0.00006   0.00031
17 Fe 5f+1      -0.00028  -0.00059   0.00012   0.00023   0.00029
17 Fe 5f+2       0.00048  -0.00079  -0.00145   0.00026  -0.00067
17 Fe 5f+3      -0.00267  -0.00119  -0.00015   0.00039  -0.00011
17 Fe 5g-4       0.00136  -0.00006   0.00019   0.00014   0.00007
17 Fe 5g-3      -0.00028   0.00009   0.00089  -0.00003   0.00104
17 Fe 5g-2      -0.00079  -0.00059  -0.00027   0.00033  -0.00011
17 Fe 5g-1       0.00013  -0.00020  -0.00073  -0.00007  -0.00051
17 Fe 5g+0       0.00072   0.00064  -0.00006   0.00033   0.00049
17 Fe 5g+1       0.00031   0.00008  -0.00066   0.00051  -0.00149
17 Fe 5g+2      -0.00072   0.00018  -0.00017  -0.00065  -0.00053
17 Fe 5g+3      -0.00013   0.00017  -0.00008  -0.00037   0.00058
17 Fe 5g+4      -0.00004  -0.00136   0.00017   0.00146   0.00033
18 O 1s         -0.00007  -0.00039   0.00008  -0.00009   0.00001
18 O 2s         -0.00875  -0.00663   0.01463   0.00341  -0.02395
18 O 3s         -0.00264  -0.00172   0.00429   0.00099  -0.00697
18 O 4s         -0.02112  -0.00949   0.02410   0.00491  -0.03815
18 O 2px         0.00671   0.00549  -0.00642   0.00717   0.00603
18 O 2py         0.00741  -0.00900  -0.00704  -0.00115  -0.01215
18 O 2pz         0.00602  -0.01098   0.00699   0.00915  -0.01961
18 O 3px         0.00777   0.00710  -0.00787   0.00869   0.00802
18 O 3py         0.00852  -0.01154  -0.00811  -0.00131  -0.01630
18 O 3pz         0.00669  -0.01470   0.00940   0.01217  -0.02651
18 O 4px         0.00809   0.00695  -0.00699   0.00836   0.00819
18 O 4py         0.00983  -0.01358  -0.00753  -0.00275  -0.01749
18 O 4pz         0.01245  -0.01284   0.00988   0.01324  -0.02750
18 O 3dxy        0.00036  -0.00046  -0.00042  -0.00013  -0.00016
18 O 3dyz       -0.00053   0.00040   0.00037   0.00025   0.00023
18 O 3dz^2      -0.00040   0.00009  -0.00009  -0.00071   0.00049
18 O 3dxz       -0.00082  -0.00035   0.00074   0.00003  -0.00084
18 O 3dx2-y2     0.00065   0.00031  -0.00044   0.00038   0.00026
18 O 4dxy        0.00027  -0.00155  -0.00111  -0.00045  -0.00140
18 O 4dyz       -0.00205   0.00141   0.00122   0.00105   0.00044
18 O 4dz^2      -0.00118   0.00026  -0.00038  -0.00304   0.00192
18 O 4dxz       -0.00203  -0.00095   0.00177   0.00031  -0.00295
18 O 4dx2-y2     0.00153   0.00124  -0.00117   0.00128   0.00090
18 O 4f-3        0.00032   0.00010  -0.00017   0.00018  -0.00009
18 O 4f-2       -0.00020  -0.00024   0.00018   0.00000  -0.00035
18 O 4f-1       -0.00043   0.00027  -0.00005  -0.00023   0.00053
18 O 4f+0        0.00003   0.00002  -0.00022  -0.00040   0.00021
18 O 4f+1       -0.00053  -0.00007   0.00020  -0.00016  -0.00010
18 O 4f+2        0.00036  -0.00015  -0.00013   0.00002  -0.00025
18 O 4f+3       -0.00004   0.00022   0.00011   0.00012   0.00032
19 Fe 1s         0.00009  -0.00001   0.00000  -0.00092   0.00000
19 Fe 2s         0.00027  -0.00003   0.00000  -0.00273   0.00000
19 Fe 3s         0.00163  -0.00152   0.00000  -0.01355   0.00000
19 Fe 4s         0.01788   0.00516   0.00000  -0.04816   0.00000
19 Fe 5s         0.00226   0.00310  -0.00000   0.00013  -0.00000
19 Fe 6s         0.00105   0.00107   0.00000  -0.00219   0.00000
19 Fe 7s         0.03504   0.00177  -0.00000   0.01236   0.00000
19 Fe 2px        0.00003   0.00043  -0.00002   0.00132   0.00001
19 Fe 2py        0.00008   0.00008   0.00002   0.00026  -0.00001
19 Fe 2pz        0.00001  -0.00005  -0.00012  -0.00015   0.00010
19 Fe 3px       -0.00012   0.01260  -0.00002   0.03204   0.00052
19 Fe 3py       -0.00001   0.00076   0.00002   0.00652  -0.00052
19 Fe 3pz        0.00002  -0.00168  -0.00013  -0.00362   0.00367
19 Fe 4px       -0.03632   0.03149  -0.00082   0.12114   0.00051
19 Fe 4py        0.02620  -0.00755   0.00082   0.04142  -0.00050
19 Fe 4pz        0.00887  -0.00554  -0.00578  -0.01131   0.00356
19 Fe 5px        0.02904  -0.04720   0.00022  -0.14815  -0.00183
19 Fe 5py       -0.01269  -0.00292  -0.00022  -0.04037   0.00182
19 Fe 5pz       -0.00592   0.00628   0.00157   0.01529  -0.01287
19 Fe 6px       -0.00165  -0.00282  -0.00020  -0.00513  -0.00014
19 Fe 6py       -0.00055   0.00130   0.00020  -0.00133   0.00014
19 Fe 6pz        0.00016   0.00058  -0.00141   0.00054  -0.00100
19 Fe 7px       -0.01139   0.00237   0.00087   0.00158   0.00051
19 Fe 7py       -0.01559  -0.00578  -0.00087  -0.00005  -0.00051
19 Fe 7pz       -0.00060  -0.00116   0.00613  -0.00023   0.00362
19 Fe 3dxy      -0.00252   0.49118   0.08986  -0.43847  -0.10341
19 Fe 3dyz      -0.00337  -0.05022  -0.05824  -0.01178  -0.69243
19 Fe 3dz^2     -0.00835   0.15432   0.15562   0.45087  -0.17911
19 Fe 3dxz      -0.00839   0.17392  -0.66633   0.08941   0.00747
19 Fe 3dx2-y2    0.04147  -0.43609  -0.10276  -0.27370  -0.09713
19 Fe 4dxy      -0.00277  -0.05007  -0.01086   0.05019   0.01511
19 Fe 4dyz      -0.00020   0.00531   0.00120   0.00103   0.09520
19 Fe 4dz^2      0.00248  -0.01905  -0.01882  -0.05322   0.02618
19 Fe 4dxz       0.00025  -0.01924   0.07472  -0.01138  -0.00709
19 Fe 4dx2-y2   -0.00019   0.04912   0.01077   0.03648   0.01249
19 Fe 5dxy      -0.00093  -0.01029  -0.00216   0.00980   0.00301
19 Fe 5dyz      -0.00009   0.00109   0.00033   0.00027   0.01893
19 Fe 5dz^2      0.00095  -0.00372  -0.00374  -0.01045   0.00521
19 Fe 5dxz       0.00012  -0.00385   0.01492  -0.00218  -0.00142
19 Fe 5dx2-y2   -0.00008   0.00975   0.00216   0.00674   0.00248
19 Fe 6dxy      -0.00200   0.00657   0.00132  -0.00666   0.00199
19 Fe 6dyz      -0.00064  -0.00116   0.00151  -0.00089   0.00917
19 Fe 6dz^2      0.00214   0.00384   0.00229   0.00987   0.00345
19 Fe 6dxz      -0.00014   0.00274  -0.00743   0.00220  -0.00430
19 Fe 6dx2-y2    0.00275  -0.00557  -0.00084  -0.00462   0.00069
19 Fe 4f-3      -0.00004   0.00014   0.00004  -0.00032  -0.00010
19 Fe 4f-2      -0.00000  -0.00001  -0.00014   0.00002  -0.00041
19 Fe 4f-1      -0.00001  -0.00008   0.00003   0.00013   0.00004
19 Fe 4f+0      -0.00003  -0.00009   0.00021  -0.00009   0.00009
19 Fe 4f+1       0.00006   0.00016   0.00012   0.00039  -0.00010
19 Fe 4f+2       0.00001   0.00011  -0.00032   0.00009   0.00013
19 Fe 4f+3      -0.00006  -0.00040  -0.00008  -0.00014  -0.00005
19 Fe 5f-3      -0.00021   0.00116   0.00018  -0.00403  -0.00022
19 Fe 5f-2       0.00016  -0.00001  -0.00226   0.00061  -0.00117
19 Fe 5f-1      -0.00068  -0.00035   0.00035   0.00168   0.00009
19 Fe 5f+0      -0.00022  -0.00081   0.00247  -0.00086   0.00051
19 Fe 5f+1      -0.00006   0.00181   0.00111   0.00409  -0.00012
19 Fe 5f+2       0.00007   0.00130  -0.00312   0.00111   0.00007
19 Fe 5f+3      -0.00157  -0.00412  -0.00095  -0.00272  -0.00020
19 Fe 5g-4       0.00010  -0.00011  -0.00002   0.00000  -0.00013
19 Fe 5g-3      -0.00002   0.00001  -0.00014  -0.00001  -0.00020
19 Fe 5g-2       0.00001  -0.00005   0.00006   0.00020  -0.00002
19 Fe 5g-1       0.00002  -0.00004   0.00002  -0.00014   0.00017
19 Fe 5g+0      -0.00001   0.00008   0.00000   0.00009   0.00006
19 Fe 5g+1       0.00002   0.00000   0.00002   0.00011   0.00004
19 Fe 5g+2      -0.00006   0.00006  -0.00001   0.00004  -0.00012
19 Fe 5g+3      -0.00001   0.00000  -0.00006   0.00001   0.00042
19 Fe 5g+4       0.00008  -0.00010  -0.00004   0.00029   0.00004
20 O 1s         -0.00008  -0.00015   0.00001   0.00000  -0.00033
20 O 2s          0.00085   0.00553  -0.01535  -0.01207   0.02606
20 O 3s          0.00023   0.00169  -0.00438  -0.00331   0.00740
20 O 4s          0.00097   0.01042  -0.02327  -0.01960   0.04198
20 O 2px        -0.00330   0.01144  -0.00634   0.00841  -0.01712
20 O 2py         0.00071  -0.00124  -0.00857  -0.00644   0.01151
20 O 2pz         0.00478  -0.00224  -0.01082  -0.01536   0.03198
20 O 3px        -0.00430   0.01437  -0.00705   0.01148  -0.02259
20 O 3py         0.00129  -0.00162  -0.01030  -0.00862   0.01498
20 O 3pz         0.00625  -0.00247  -0.01413  -0.02034   0.04228
20 O 4px        -0.00376   0.01315  -0.00737   0.01109  -0.02572
20 O 4py         0.00257  -0.00331  -0.01154  -0.00374   0.00803
20 O 4pz         0.00927  -0.00412  -0.01610  -0.01830   0.03749
20 O 3dxy        0.00016  -0.00046   0.00034  -0.00011  -0.00004
20 O 3dyz        0.00000  -0.00022   0.00064   0.00040  -0.00085
20 O 3dz^2      -0.00023  -0.00006   0.00003  -0.00002  -0.00032
20 O 3dxz        0.00006  -0.00046   0.00031  -0.00012  -0.00001
20 O 3dx2-y2    -0.00007  -0.00005  -0.00039  -0.00040   0.00038
20 O 4dxy       -0.00012  -0.00100   0.00093  -0.00086   0.00110
20 O 4dyz       -0.00033  -0.00036   0.00115   0.00105  -0.00233
20 O 4dz^2      -0.00006  -0.00016  -0.00004   0.00003  -0.00110
20 O 4dxz       -0.00006  -0.00120   0.00095  -0.00011  -0.00063
20 O 4dx2-y2     0.00016  -0.00066  -0.00070  -0.00124   0.00116
20 O 4f-3       -0.00000   0.00022  -0.00007   0.00022  -0.00032
20 O 4f-2       -0.00001   0.00004  -0.00023  -0.00021   0.00042
20 O 4f-1        0.00018  -0.00009   0.00014   0.00016  -0.00003
20 O 4f+0        0.00001  -0.00016   0.00023   0.00008  -0.00027
20 O 4f+1        0.00011  -0.00016  -0.00003  -0.00014   0.00048
20 O 4f+2       -0.00013   0.00019  -0.00002   0.00007  -0.00028
[...]
 Frag    Nelec  2S+1   Ir     <n>  Max(weight)   Entropy
    0    3a+2b     6    A   1.293       0.9161  0.286591
    1    3a+3b     7    A   2.621       0.8479  0.287291
Wave function(s) in rootspace 23 in local primitive basis:
   Fac:  5.882e-04  5.123e-04  3.813e-04  5.168e-04  1.821e-04
   0.3: -9.146e-01 -9.129e-01  9.102e-01  9.061e-01 -9.006e-01
   0.0: -2.654e-01 -2.695e-01  2.763e-01  2.862e-01 -2.987e-01
  20.0:  2.011e-01  2.017e-01 -2.025e-01 -2.038e-01  2.053e-01
  20.3: -1.199e-01 -1.203e-01  1.208e-01  1.217e-01 -1.227e-01
   5.0: -1.161e-01 -1.165e-01  1.171e-01  1.180e-01 -1.191e-01
   0.2: -8.320e-02 -8.528e-02  8.879e-02  9.376e-02 -1.003e-01
   5.3:  7.472e-02  7.502e-02 -7.551e-02 -7.622e-02  7.710e-02
  0.15:  4.853e-02  4.858e-02 -4.865e-02 -4.875e-02  4.887e-02
   5.2:  4.676e-02  4.664e-02 -4.644e-02 -4.615e-02  4.576e-02
  14.0:  2.876e-02  2.885e-02 -2.899e-02 -2.918e-02  2.943e-02
  0.10: -2.723e-02 -2.725e-02  2.729e-02  2.734e-02 -2.741e-02
  13.2:  2.548e-02  2.552e-02 -2.560e-02 -2.569e-02  2.582e-02
   1.0:  2.585e-02  2.571e-02 -2.547e-02 -2.514e-02  2.471e-02
  20.2: -2.220e-02 -2.183e-02  2.120e-02  2.030e-02 -1.913e-02
   4.3:  2.030e-02  2.026e-02 -2.019e-02 -2.010e-02  1.998e-02
  14.3: -1.876e-02 -1.881e-02  1.889e-02  1.899e-02 -1.913e-02
   4.0: -1.720e-02 -1.724e-02  1.732e-02  1.743e-02 -1.757e-02
  10.0:  1.657e-02  1.668e-02 -1.685e-02 -1.711e-02  1.743e-02
  0.20:  1.623e-02  1.624e-02 -1.626e-02 -1.629e-02  1.632e-02
  19.0:  1.586e-02  1.598e-02 -1.618e-02 -1.647e-02  1.684e-02
  19.3: -1.503e-02 -1.510e-02  1.523e-02  1.541e-02 -1.565e-02
   4.2: -1.489e-02 -1.495e-02  1.506e-02  1.521e-02 -1.541e-02
  10.3: -1.471e-02 -1.479e-02  1.493e-02  1.512e-02 -1.537e-02
  18.2:  1.425e-02  1.426e-02 -1.428e-02 -1.430e-02  1.432e-02
   0.8:  1.401e-02  1.403e-02 -1.407e-02 -1.412e-02  1.419e-02
  14.2: -1.227e-02 -1.223e-02  1.217e-02  1.207e-02 -1.194e-02
   9.0:  1.158e-02  1.154e-02 -1.149e-02 -1.140e-02  1.128e-02
   2.1:  1.137e-02  1.138e-02 -1.138e-02 -1.138e-02  1.138e-02
   1.3: -1.164e-02 -1.141e-02  1.103e-02  1.049e-02 -9.800e-03
   0.6: -1.054e-02 -1.056e-02  1.059e-02  1.064e-02 -1.070e-02
   9.2:  9.970e-03  9.936e-03 -9.877e-03 -9.792e-03  9.679e-03
   7.0:  9.146e-03  9.210e-03 -9.317e-03 -9.470e-03  9.670e-03
   3.4: -9.262e-03 -9.270e-03  9.285e-03  9.302e-03 -9.323e-03
  18.0:  8.334e-03  8.321e-03 -8.298e-03 -8.262e-03  8.210e-03
   3.1: -8.104e-03 -8.087e-03  8.057e-03  8.011e-03 -7.947e-03
  18.3: -7.404e-03 -7.430e-03  7.472e-03  7.530e-03 -7.600e-03
   7.2: -6.967e-03 -6.921e-03  6.844e-03  6.734e-03 -6.589e-03
  0.12: -6.388e-03 -6.392e-03  6.398e-03  6.406e-03 -6.416e-03
   9.3: -6.291e-03 -6.285e-03  6.276e-03  6.259e-03 -6.236e-03
  16.4: -5.650e-03 -5.663e-03  5.683e-03  5.712e-03 -5.747e-03
  19.2:  5.236e-03  5.311e-03 -5.438e-03 -5.618e-03  5.853e-03
  17.4:  4.823e-03  4.835e-03 -4.854e-03 -4.880e-03  4.913e-03
  11.1: -4.762e-03 -4.755e-03  4.743e-03  4.727e-03 -4.706e-03
   7.3: -4.180e-03 -4.199e-03  4.232e-03  4.278e-03 -4.340e-03
  13.0:  4.053e-03  4.072e-03 -4.103e-03 -4.146e-03  4.198e-03
  10.2: -4.071e-03 -4.018e-03  3.929e-03  3.802e-03 -3.635e-03
 20.15:  3.856e-03  3.857e-03 -3.858e-03 -3.860e-03  3.861e-03
  15.1:  3.649e-03  3.642e-03 -3.630e-03 -3.612e-03  3.588e-03
   8.4:  3.165e-03  3.176e-03 -3.192e-03 -3.216e-03  3.246e-03
  5.15: -2.726e-03 -2.725e-03  2.723e-03  2.720e-03 -2.714e-03
 20.10: -2.431e-03 -2.434e-03  2.438e-03  2.444e-03 -2.450e-03
   1.2: -2.309e-03 -2.289e-03  2.255e-03  2.208e-03 -2.146e-03
   6.1: -2.198e-03 -2.199e-03  2.199e-03  2.199e-03 -2.196e-03
 20.20:  2.091e-03  2.094e-03 -2.098e-03 -2.103e-03  2.110e-03
  5.10:  1.759e-03  1.759e-03 -1.759e-03 -1.758e-03  1.756e-03
  13.3:  1.595e-03  1.616e-03 -1.651e-03 -1.702e-03  1.767e-03
  17.1:  1.613e-03  1.609e-03 -1.600e-03 -1.588e-03  1.571e-03
  5.20: -1.489e-03 -1.489e-03  1.489e-03  1.488e-03 -1.486e-03
   2.4: -1.178e-03 -1.189e-03  1.208e-03  1.236e-03 -1.272e-03
  12.4:  1.129e-03  1.132e-03 -1.138e-03 -1.146e-03  1.156e-03
  12.1:  8.669e-04  8.831e-04 -9.102e-04 -9.488e-04  9.988e-04
  0.16: -8.961e-04 -8.942e-04  8.907e-04  8.864e-04 -8.801e-04
  20.8:  8.458e-04  8.478e-04 -8.514e-04 -8.564e-04  8.631e-04
   8.1: -7.935e-04 -8.022e-04  8.170e-04  8.381e-04 -8.660e-04
 14.15:  7.359e-04  7.366e-04 -7.377e-04 -7.391e-04  7.408e-04
  15.4:  7.161e-04  7.092e-04 -6.974e-04 -6.804e-04  6.580e-04
 10.15:  5.644e-04  5.645e-04 -5.646e-04 -5.648e-04  5.649e-04
  11.4: -5.756e-04 -5.702e-04  5.615e-04  5.490e-04 -5.335e-04
  9.15: -5.375e-04 -5.379e-04  5.385e-04  5.393e-04 -5.402e-04
  7.15:  4.954e-04  4.958e-04 -4.965e-04 -4.975e-04  4.987e-04
 14.10: -4.940e-04 -4.945e-04  4.954e-04  4.965e-04 -4.978e-04
 13.15: -4.941e-04 -4.937e-04  4.929e-04  4.919e-04 -4.904e-04
  9.10:  4.857e-04  4.863e-04 -4.874e-04 -4.889e-04  4.906e-04
   5.8: -4.859e-04 -4.863e-04  4.871e-04  4.882e-04 -4.895e-04
  16.1:  4.136e-04  4.241e-04 -4.421e-04 -4.678e-04  5.018e-04
  20.6: -4.534e-04 -4.526e-04  4.514e-04  4.496e-04 -4.474e-04
 14.20:  4.196e-04  4.202e-04 -4.212e-04 -4.226e-04  4.242e-04
 10.10: -4.040e-04 -4.045e-04  4.054e-04  4.065e-04 -4.079e-04
 18.15: -4.016e-04 -4.014e-04  4.012e-04  4.008e-04 -4.003e-04
 13.10:  3.974e-04  3.970e-04 -3.963e-04 -3.952e-04  3.937e-04
  7.10: -3.786e-04 -3.793e-04  3.804e-04  3.820e-04 -3.839e-04
 18.10:  3.516e-04  3.515e-04 -3.515e-04 -3.512e-04  3.510e-04
 20.16:  3.321e-04  3.323e-04 -3.325e-04 -3.327e-04  3.330e-04
   5.6:  3.298e-04  3.292e-04 -3.281e-04 -3.266e-04  3.246e-04
  9.20: -3.108e-04 -3.112e-04  3.118e-04  3.126e-04 -3.135e-04
 10.20:  3.047e-04  3.044e-04 -3.038e-04 -3.029e-04  3.016e-04
  7.20:  2.920e-04  2.927e-04 -2.937e-04 -2.951e-04  2.969e-04
 13.20: -2.880e-04 -2.874e-04  2.864e-04  2.849e-04 -2.830e-04
  5.16: -2.498e-04 -2.501e-04  2.507e-04  2.513e-04 -2.523e-04
 18.20: -2.312e-04 -2.309e-04  2.303e-04  2.295e-04 -2.285e-04
 19.15:  1.819e-04  1.835e-04 -1.861e-04 -1.899e-04  1.944e-04
 20.12: -1.463e-04 -1.458e-04  1.450e-04  1.439e-04 -1.428e-04
  14.8:  1.368e-04  1.372e-04 -1.381e-04 -1.392e-04  1.408e-04
  10.8:  1.344e-04  1.345e-04 -1.346e-04 -1.348e-04  1.350e-04
   6.4: -1.433e-04 -1.405e-04  1.358e-04  1.288e-04 -1.194e-04
 19.20:  1.213e-04  1.228e-04 -1.253e-04 -1.288e-04  1.332e-04
  1.10:  1.253e-04  1.248e-04 -1.238e-04 -1.225e-04  1.208e-04
 19.10: -1.113e-04 -1.132e-04  1.163e-04  1.208e-04 -1.264e-04
   9.8: -1.052e-04 -1.053e-04  1.055e-04  1.059e-04 -1.063e-04
   0.4:  1.036e-04  1.038e-04 -1.040e-04 -1.044e-04  1.050e-04
   7.8:  1.020e-04  1.021e-04 -1.022e-04 -1.023e-04  1.025e-04
   4.8: -9.492e-05 -9.502e-05  9.522e-05  9.544e-05 -9.590e-05
  14.6: -9.023e-05 -9.006e-05  8.981e-05  8.943e-05 -8.899e-05
   9.6:  8.639e-05  8.629e-05 -8.611e-05 -8.588e-05  8.554e-05
  13.6:  7.516e-05  7.525e-05 -7.540e-05 -7.559e-05  7.585e-05
  19.8:  7.275e-05  7.315e-05 -7.374e-05 -7.469e-05  7.579e-05
  10.6: -7.063e-05 -7.061e-05  7.057e-05  7.052e-05 -7.046e-05
   0.1: -7.205e-05 -7.043e-05  7.180e-05  6.851e-05 -6.614e-05
  1.16:  6.666e-05  6.710e-05 -6.786e-05 -6.891e-05  7.035e-05
  5.12:  6.863e-05  6.845e-05 -6.800e-05 -6.779e-05  6.739e-05
 14.16:  6.726e-05  6.727e-05 -6.730e-05 -6.732e-05  6.734e-05
  18.6:  6.553e-05  6.555e-05 -6.559e-05 -6.560e-05  6.565e-05
   7.6: -6.530e-05 -6.525e-05  6.519e-05  6.506e-05 -6.496e-05
   2.9:  6.249e-05  6.307e-05 -6.404e-05 -6.540e-05  6.715e-05
  18.8: -4.727e-05 -4.718e-05  4.704e-05  4.682e-05 -4.657e-05
  4.15: -3.478e-05 -3.594e-05  3.794e-05  4.065e-05 -4.433e-05
   3.9: -3.175e-05 -3.234e-05  3.335e-05  3.478e-05 -3.668e-05
 13.16: -3.136e-05 -3.149e-05  3.172e-05  3.202e-05 -3.240e-05
  13.8: -3.054e-05 -3.043e-05  3.026e-05  3.001e-05 -2.966e-05
  3.14:  2.527e-05  2.638e-05 -2.826e-05 -3.090e-05  3.438e-05
  2.18: -2.637e-05 -2.657e-05  2.691e-05  2.737e-05 -2.795e-05
  9.12: -2.572e-05 -2.598e-05  2.641e-05  2.699e-05 -2.772e-05
Remaining 319 ENVs in rootspace 23 have combined average weight = 9.782052e-09
Leading 10 CSFs of 21 local primitive basis functions for fragment 0 in rootspace 23:
State 0/21               State 1/21               State 2/21               
00000uuuuu :  9.82e-01   0000u0uuuu : -9.09e-01   0000uuuu0u : -8.48e-01   
0000uuuuu0 : -1.14e-01   0000uuu0uu : -3.73e-01   0000uu0uuu : -4.88e-01   
000u00uuuu : -7.48e-02   00u0u00uuu :  9.11e-02   000uu0uu0u : -8.82e-02   
00u00u0uuu : -7.11e-02   0u00u0u0uu :  8.78e-02   00u0uu0u0u : -8.78e-02   
0u000uu0uu : -6.75e-02   u000u0uu0u :  7.35e-02   0u00uuu00u : -8.72e-02   
u0000uuu0u : -5.76e-02   000u00uuuu : -4.78e-02   0u000uuu0u : -6.36e-02   
uu000uu00u : -2.25e-02   00u0uu00uu : -4.04e-02   0u000u0uuu : -6.35e-02   
0uu00u00uu : -2.17e-02   000uu0u0uu : -3.86e-02   00u000uuuu :  5.20e-02   
000uu0uuu0 :  2.10e-02   00u00uuu0u :  3.76e-02   000uu00uuu : -5.06e-02   
0u0u00u0uu : -1.97e-02   00u00u0uuu :  3.63e-02   0u00uu00uu :  4.63e-02   
State 3/21               State 4/21               State 5/21               
0000uu0uuu : -8.49e-01   0000uuu0uu :  9.02e-01   0000uuuuu0 : -9.07e-01   
0000uuuu0u :  4.89e-01   0000u0uuuu : -3.79e-01   000u00uuuu :  2.98e-01   
0u00uu00uu :  8.62e-02   000uu0u0uu :  9.11e-02   00u00u0uuu :  1.83e-01   
000uu00uuu : -8.62e-02   00u0uu00uu :  9.01e-02   0u000uu0uu :  1.12e-01   
000u0u0uuu : -7.61e-02   u000uuu00u : -7.96e-02   0000uuu0uu : -8.60e-02   
u000uu0u0u :  7.02e-02   0000uuuuu0 : -6.91e-02   0u00uuu0u0 : -7.14e-02   
0u000u0uuu : -6.36e-02   000u00uuuu :  6.05e-02   u000uuuu00 : -6.74e-02   
0u00uuu00u :  5.38e-02   0u000uu0uu :  4.36e-02   00u0uu0uu0 : -6.66e-02   
000uu0uu0u :  4.98e-02   0u00u0u0uu :  3.73e-02   00000uuuuu : -5.71e-02   
00u0uu0u0u :  4.31e-02   00u0u00uuu :  3.45e-02   000uu0uuu0 : -5.51e-02   
State 6/21               State 7/21               State 8/21               
000u0uuu0u :  8.02e-01   000u0uu0uu :  6.25e-01   00u00uu0uu : -6.87e-01   
0u000uuu0u : -4.93e-01   000u0uuuu0 : -4.40e-01   00u000uuuu : -6.09e-01   
00u00uu0uu : -1.55e-01   000u00uuuu :  3.72e-01   00u00uuuu0 : -2.04e-01   
00u000uuuu : -1.23e-01   00u00uuu0u : -3.04e-01   000u0uuu0u : -1.90e-01   
00u00uuuu0 :  1.20e-01   0u000uu0uu : -2.86e-01   u0000uu0uu :  1.32e-01   
000u0u0uuu :  1.16e-01   00u00u0uuu : -1.67e-01   000u0u0uuu : -1.12e-01   
000uuuuu00 :  1.14e-01   0u000uuuu0 :  1.36e-01   u00000uuuu :  1.07e-01   
00uu0u0u0u :  7.83e-02   0u0000uuuu : -9.92e-02   00u0uuu0u0 : -9.53e-02   
0u0u0uu00u :  7.73e-02   000uuuu0u0 :  8.72e-02   00u0u0uuu0 : -9.04e-02   
0u00uuuu00 : -7.11e-02   0000uuuuu0 :  7.43e-02   00uu00u0uu :  6.88e-02   
State 9/21               State 10/21              State 11/21              
00u00uuu0u : -5.86e-01   000u0uuuu0 :  5.41e-01   000u0u0uuu :  8.69e-01   
000u0uuuu0 : -4.75e-01   0u000uu0uu : -4.42e-01   0u000uuu0u :  3.01e-01   
000u0uu0uu : -3.97e-01   0u0000uuuu : -4.42e-01   00u00uu0uu : -2.51e-01   
000u00uuuu : -3.38e-01   000u00uuuu :  3.68e-01   0u000u0uuu : -1.65e-01   
00u00u0uuu :  2.69e-01   00u00uuu0u : -2.80e-01   00u000uuuu :  1.29e-01   
0u0000uuuu : -1.83e-01   000u0uu0uu : -2.46e-01   000uuu0uu0 :  1.25e-01   
u0000uuu0u :  9.44e-02   0u00u0uuu0 : -6.61e-02   0u0u0u00uu : -8.35e-02   
00u0uuuu00 : -8.26e-02   000uu0uuu0 :  5.96e-02   u0000uu0uu :  7.63e-02   
0000uuuuu0 : -6.09e-02   0u00uuu0u0 : -5.72e-02   u00u0u0u0u : -6.70e-02   
0uu00uu00u : -5.66e-02   00uu0u0uu0 :  5.38e-02   0000uu0uuu : -5.18e-02   
State 12/21              State 13/21              State 14/21              
0u000uuu0u :  7.32e-01   00u00uuu0u : -5.96e-01   000u0uu0uu : -5.14e-01   
000u0uuu0u :  4.37e-01   00u00u0uuu : -4.64e-01   00u00u0uuu : -4.67e-01   
000u0u0uuu : -3.51e-01   0u0000uuuu :  3.75e-01   000u00uuuu :  4.17e-01   
0u000u0uuu : -2.65e-01   0u000uu0uu :  3.40e-01   000u0uuuu0 : -3.44e-01   
00u00uuuu0 :  1.58e-01   000u0uuuu0 :  3.23e-01   0u000uuuu0 :  2.48e-01   
00u00uu0uu : -1.17e-01   u0000uuu0u :  1.26e-01   0u000uu0uu :  2.03e-01   
0u00uuuu00 :  1.04e-01   00u0uuuu00 : -8.55e-02   00u00uuu0u :  1.88e-01   
0u0u00uu0u : -7.51e-02   00u0uu0uu0 : -7.73e-02   0u0000uuuu : -1.68e-01   
0uu00u0u0u : -6.80e-02   0000uuuuu0 : -7.34e-02   u0000uuu0u : -1.17e-01   
000uuuuu00 :  6.05e-02   u0000u0uuu :  6.80e-02   000uu0uuu0 :  6.96e-02   
State 15/21              State 16/21              State 17/21              
00u000uuuu : -6.85e-01   0u000u0uuu :  8.12e-01   00u00uuuu0 :  7.63e-01   
00u00uu0uu :  4.55e-01   00u00uuuu0 : -4.01e-01   0u000u0uuu :  3.76e-01   
00u00uuuu0 :  3.65e-01   000u0uuu0u :  2.62e-01   00u00uu0uu : -3.71e-01   
0u000u0uuu :  2.29e-01   0u000uuu0u :  2.27e-01   00u000uuuu :  2.27e-01   
000u0u0uuu :  2.14e-01   0u00uu0uu0 :  1.20e-01   000u0uuu0u : -1.43e-01   
0u000uuu0u :  1.83e-01   00u000uuuu :  9.67e-02   u0000uuuu0 : -1.17e-01   
u00000uuuu :  1.15e-01   0u0u000uuu : -8.14e-02   u0000uu0uu :  1.12e-01   
00u0u0uuu0 : -1.01e-01   0000uu0uuu : -7.26e-02   00uu00uuu0 : -8.24e-02   
u0000uu0uu : -7.80e-02   00u00uu0uu : -6.89e-02   000u0u0uuu : -7.77e-02   
00u0uuu0u0 :  6.29e-02   uu000u0u0u : -5.97e-02   0uu00uu0u0 :  6.52e-02   
State 18/21              State 19/21              State 20/21              
0u0000uuuu : -7.36e-01   0u000uuuu0 : -9.21e-01   u0000uuu0u : -6.31e-01   
0u000uu0uu :  4.57e-01   000u0uuuu0 : -1.81e-01   00u00u0uuu :  4.08e-01   
000u0uu0uu :  2.68e-01   000u00uuuu :  1.73e-01   0u000uu0uu :  3.87e-01   
000u00uuuu : -2.35e-01   00u00u0uuu : -1.41e-01   000u00uuuu :  3.26e-01   
0u000uuuu0 : -1.94e-01   000u0uu0uu : -1.24e-01   00u00uuu0u : -2.19e-01   
00u00u0uuu : -1.93e-01   0u000uu0uu : -9.95e-02   u0000u0uuu : -1.90e-01   
0u00u0uuu0 : -1.10e-01   0u0000uuuu :  9.81e-02   0000uuuuu0 :  1.87e-01   
000u0uuuu0 :  7.47e-02   0u0u00uuu0 :  9.63e-02   00u0uu0uu0 :  7.85e-02   
0uu0000uuu : -6.71e-02   0uu00u0uu0 :  8.77e-02   0uu00u00uu : -7.64e-02   
0u00uuu0u0 :  6.06e-02   uu000uuu00 : -6.76e-02   0u00uuu0u0 :  7.30e-02   
Leading 10 CSFs of 21 local primitive basis functions for fragment 1 in rootspace 23:
State 0/21               State 1/21               State 2/21               
0000uuuuuu :  9.57e-01   000u0uuuuu :  9.91e-01   00u00uuuuu : -9.59e-01   
00u00uuuuu :  2.49e-01   0u0u0uuu0u : -6.41e-02   0000uuuuuu :  2.50e-01   
000uuu0uuu : -6.19e-02   000uu0uuuu :  6.41e-02   00u0u0uuuu : -6.08e-02   
0u00uuuu0u : -6.18e-02   00uu0uu0uu : -6.18e-02   00uu0u0uuu : -6.01e-02   
00u0uuu0uu : -5.97e-02   u00u0uuuu0 : -5.63e-02   u0u00uuuu0 :  5.96e-02   
0u000uuuuu : -5.95e-02   u0uu0uu0u0 : -2.39e-02   0uu00uuu0u :  5.84e-02   
u000uuuuu0 : -5.41e-02   0u0uu0uu0u :  2.28e-02   0uuu0u0u0u : -2.19e-02   
u0u0uuu0u0 : -2.30e-02   00uuu0u0uu :  2.07e-02   0uu0u0uu0u : -2.18e-02   
0u0uuu0u0u : -2.18e-02   u00uu0uuu0 :  1.95e-02   00uuu00uuu :  2.12e-02   
00uuuu00uu : -1.96e-02   0uuu0uu00u : -1.94e-02   u0uu0u0uu0 : -1.91e-02   
State 3/21               State 4/21               State 5/21               
0u000uuuuu :  9.89e-01   u0000uuuuu :  9.90e-01   00u0uuuuu0 :  9.33e-01   
0u00u0uuuu :  6.59e-02   u0u00uu0uu :  6.86e-02   00uu0uuu0u :  2.97e-01   
0u0u0u0uuu :  6.54e-02   u00u0u0uuu :  6.38e-02   0u00uuuuu0 :  1.30e-01   
0uu00uu0uu :  6.05e-02   u000u0uuuu :  6.36e-02   0uu00uuuu0 :  6.30e-02   
0000uuuuuu :  5.77e-02   uu000uuu0u :  6.08e-02   00uuuu0uu0 : -6.14e-02   
uu000uuuu0 : -5.48e-02   uu00u0uu0u : -2.27e-02   0uu0uuuu00 :  6.05e-02   
uuu00uu0u0 :  2.39e-02   uu0u0u0u0u : -2.25e-02   00u0uu0uuu : -5.91e-02   
0u0uu00uuu : -2.13e-02   u00uu00uuu : -2.14e-02   00uu00uuuu :  5.84e-02   
0uu0u0u0uu : -2.07e-02   u0u0u0u0uu : -2.04e-02   000uuuuu0u : -3.93e-02   
0uuu0u00uu : -2.06e-02   u0uu0u00uu : -2.03e-02   u00u0uuuu0 :  3.21e-02   
State 6/21               State 7/21               State 8/21               
00uu0uuuu0 :  9.43e-01   000uuuuu0u :  9.06e-01   000uuuuuu0 :  7.37e-01   
00u0uuuu0u :  2.65e-01   00uu0uuu0u :  3.32e-01   00u0uuuu0u : -5.55e-01   
00u0u0uuuu :  9.92e-02   000uu0uuuu :  1.69e-01   00uu0u0uuu :  2.11e-01   
0u0u0uuuu0 : -9.56e-02   0u0u0uuu0u :  1.11e-01   0u00uuuu0u : -1.45e-01   
0uu00uuu0u :  7.42e-02   00u0uuuuu0 : -7.18e-02   0u0u0uuuu0 :  1.32e-01   
00uuu0uuu0 :  6.26e-02   00uu00uuuu :  7.01e-02   0uu00uuu0u :  1.19e-01   
0uuu0uuu00 :  6.10e-02   00uuuuu00u :  6.23e-02   00uu0uuuu0 :  1.09e-01   
000uuuuuu0 :  6.09e-02   00uu0uu0uu :  6.07e-02   u0u00uuuu0 :  9.48e-02   
000uuu0uuu :  3.21e-02   u00uuuuu00 : -5.52e-02   00u0uuu0uu :  8.27e-02   
u000uuuuu0 : -2.71e-02   u0u00uuu0u :  4.69e-02   000uuu0uuu :  7.26e-02   
State 9/21               State 10/21              State 11/21              
00uu0uuu0u :  7.22e-01   00u0uuuu0u : -5.86e-01   00u0uu0uuu : -6.21e-01   
000uu0uuuu : -3.75e-01   000uuuuuu0 : -5.14e-01   00uu00uuuu : -5.02e-01   
0u0u0uuu0u : -3.67e-01   000uuu0uuu :  3.44e-01   0uu00uuuu0 : -4.90e-01   
00u0uuuuu0 : -2.38e-01   0u00uuuu0u : -3.15e-01   00uu0uuu0u :  1.80e-01   
00uu00uuuu :  2.02e-01   00u0u0uuuu : -2.49e-01   0u00uuuuu0 : -1.52e-01   
000uuuuu0u : -1.91e-01   00uu0uuuu0 :  2.10e-01   0u00uu0uuu : -1.44e-01   
0u0u00uuuu : -1.34e-01   0u0u0uuuu0 : -1.39e-01   0u0u0uuu0u : -1.18e-01   
00uu0uu0uu :  1.19e-01   0uu00uuu0u : -1.17e-01   000uu0uuuu : -9.88e-02   
00u0uu0uuu :  1.03e-01   00u0uuu0uu :  1.01e-01   0u0u00uuuu :  7.23e-02   
0uu00uuuu0 :  9.63e-02   u000uuuuu0 : -6.74e-02   u0u00uuu0u : -6.47e-02   
State 12/21              State 13/21              State 14/21              
00u0uuu0uu : -6.03e-01   00uu0uu0uu :  5.90e-01   000uuuu0uu : -5.99e-01   
000uuu0uuu :  5.35e-01   000uu0uuuu :  5.53e-01   00u0uu0uuu : -4.40e-01   
00uu0u0uuu :  3.64e-01   00uu00uuuu :  3.81e-01   00uu00uuuu :  4.12e-01   
00u0u0uuuu : -2.89e-01   00u0uu0uuu : -2.64e-01   00uu0uu0uu : -3.26e-01   
00u0uuuu0u :  2.45e-01   000uuuuu0u : -2.15e-01   000uu0uuuu : -1.97e-01   
0u0u0uuuu0 :  1.36e-01   0u00uuuuu0 : -1.38e-01   0u0u00uuuu : -1.91e-01   
0u00uuu0uu : -1.05e-01   0u0u0uu0uu : -1.18e-01   0u00uu0uuu : -1.75e-01   
000uuuuuu0 :  7.56e-02   0u00uu0uuu : -1.03e-01   0uu00uuuu0 :  1.72e-01   
u000uuuuu0 :  7.33e-02   00uu0uuu0u :  7.83e-02   00uu0uuu0u : -9.91e-02   
u0u00u0uuu :  7.18e-02   u0u000uuuu :  7.33e-02   0uu00u0uuu :  6.65e-02   
State 15/21              State 16/21              State 17/21              
00u0u0uuuu :  6.06e-01   0uu00uuu0u : -5.87e-01   0uu00uuuu0 :  7.51e-01   
00uu0u0uuu : -5.36e-01   00uu0u0uuu : -3.71e-01   00u0uu0uuu : -3.64e-01   
000uuu0uuu :  3.54e-01   000uuuuuu0 :  3.09e-01   000uuuu0uu :  3.46e-01   
00u0uuu0uu : -3.17e-01   00u0u0uuuu : -2.76e-01   0u00uu0uuu : -2.47e-01   
0uu00uu0uu : -1.97e-01   0u00uuuu0u : -2.75e-01   00uu00uuuu : -2.16e-01   
0u00uuu0uu : -1.30e-01   00u0uuuu0u :  2.50e-01   0u0u00uuuu :  1.77e-01   
00u0uuuu0u : -1.16e-01   0u00u0uuuu : -2.19e-01   0uu00u0uuu :  1.18e-01   
0u0u0u0uuu :  1.16e-01   0u0u0u0uuu :  2.07e-01   0u0u0uu0uu :  7.13e-02   
0u00uuuu0u : -7.81e-02   00u0uuu0uu :  2.00e-01   0u00uuuuu0 :  6.21e-02   
0uu000uuuu : -6.50e-02   000uuu0uuu :  1.67e-01   00u0uuuuu0 : -5.70e-02   
State 18/21              State 19/21              State 20/21              
000uuuu0uu :  6.53e-01   0uu00u0uuu :  5.53e-01   0uu000uuuu : -5.08e-01   
00uu00uuuu :  4.09e-01   0u0u0uuu0u : -4.54e-01   0u00uuuu0u : -3.86e-01   
0u0u00uuuu : -3.75e-01   0u00uu0uuu :  3.05e-01   0uu00uuu0u :  3.60e-01   
0uu00uuuu0 : -2.58e-01   00uu0uu0uu :  3.03e-01   0u0u0uuuu0 : -3.40e-01   
0u0u0uu0uu :  2.15e-01   00uu0uuu0u : -3.01e-01   00u0uuu0uu :  2.36e-01   
00u0uu0uuu : -2.01e-01   0u00uuuuu0 : -2.34e-01   00u0uuuu0u :  2.35e-01   
00uu0uuu0u : -1.57e-01   000uu0uuuu : -2.15e-01   0uu00uu0uu :  2.14e-01   
00uu0uu0uu : -1.54e-01   000uuuuu0u :  1.81e-01   00uu0u0uuu :  2.04e-01   
0u00uu0uuu : -1.24e-01   0u0u00uuuu : -1.63e-01   000uuu0uuu :  1.85e-01   
000uu0uuuu : -1.19e-01   00u0uuuuu0 :  1.49e-01   0u00u0uuuu : -1.83e-01   
All 33 rootspaces accounted for
