#INFO: **** input file is /project/lgagliardi/valayagarawal/lasscf/mof_nodes/Al_Fe_Fe/production/20_11/lassi_1_13.py ****
import numpy as np
import sys
from pyscf import gto, scf, tools,lib, mcscf
from pyscf.mcscf import avas,project_init_guess
from pyscf import mcscf
from mrh.my_pyscf.tools import molden
from mrh.my_pyscf.mcscf import lasscf_async as asyn
mol_name='Al_Fe_Fe.xyz' # Al-Fe-Fe MOF node
basis={'C': 'cc-pvdz','H': 'cc-pvdz','O': 'cc-pvtz','Al': 'cc-pvtz','Fe': 'cc-pvtz'}
n=13
output='r1_n'+str(n)+'.log'
mol=gto.M(atom=mol_name,verbose=4,spin=9,charge=0,basis=basis, output=output) #spin = 2S
mf=scf.RHF(mol)
mf.init_guess='atom'
mf=mf.density_fit()
mf.max_cycle=1
mf.kernel()
mf.mo_coeff=np.load('hf.npy')
#np.save('hf',mf.mo_coeff)
#ncas,nelecas,guess_mo_coeff=avas.kernel(mf,['Fe 3d', 'Fe 4d'],minao=mol.basis, openshell_option=3)
#mc_test = mcscf.CASCI (mf, ncas, nelecas)
#tools.molden.from_mo(mol,'avas.molden',guess_mo_coeff[:,mc_test.ncore:][:,:ncas])
#final_list=[5,6,8,9,10,11,12,13,14]#,15,16,17,18,19,20,21,22,23,24,25]+mc_test.ncore

mo_guess=np.load('las_20_11.npy')
las=asyn.LASSCF(mf,(10,10),((1,5),(5,0)),spin_sub=(5,6),verbose=4) # spin is 2S+1
las.set_fragments_(([17],[19]),mo_guess)
las.mo_coeff=mo_guess
from mrh.my_pyscf.lassi import states
las=states.spin_shuffle(las)
#for _ in range(i):
las=states.all_single_excitations(las)
ncsf=las.get_ugg().ncsf_sub
lroots=np.minimum(n,ncsf)
las.lasci()
las.lasci(lroots=lroots)
e_roots, si= las.lassi(opt=1)
from mrh.my_pyscf.lassi.sitools import analyze
analyze(las,si, state=[0,1,2,3,4])
#INFO: ******************** input file end ********************


System: uname_result(system='Linux', node='midway3-0554.rcc.local', release='4.18.0-305.3.1.el8.x86_64', version='#1 SMP Tue Jun 1 16:14:33 UTC 2021', machine='x86_64')  Threads 16
Python 3.9.12 (main, Apr  5 2022, 06:56:58) 
[GCC 7.5.0]
numpy 1.25.0  scipy 1.7.3
Date: Tue Feb 20 18:10:48 2024
PySCF version 2.5.0
PySCF path  /project/lgagliardi/shared/Apps/pyscf
GIT ORIG_HEAD 0bc590ffddec98eec5d2513a3d85274b7a791bc6
GIT HEAD (branch master) 6f8ce439fbe0c26ec4d226e2225b28c7f668f922

[ENV] PYSCF_MAX_MEMORY 128000
[CONFIG] conf_file /home/valayagarawal/.pyscf_conf.py
[INPUT] verbose = 4
[INPUT] num. atoms = 28
[INPUT] num. electrons = 211
[INPUT] charge = 0
[INPUT] spin (= nelec alpha-beta = 2S) = 9
[INPUT] symmetry False subgroup None
[INPUT] Mole.unit = angstrom
[INPUT] Symbol           X                Y                Z      unit          X                Y                Z       unit  Magmom
[INPUT]  1 O     -2.220198244100   0.399190300300   1.694471698900 AA   -4.195566623589   0.754360339150   3.202087436747 Bohr   0.0
[INPUT]  2 O     -1.685553244600  -1.782306321700   1.431399507200 AA   -3.185234000666  -3.368070818094   2.704953043445 Bohr   0.0
[INPUT]  3 C     -2.268517865100  -0.831955037900   1.983951274000 AA   -4.286877473722  -1.572167169583   3.749124552342 Bohr   0.0
[INPUT]  4 H     -2.913342016700  -1.076728588500   2.843786805300 AA   -5.505418518751  -2.034722142755   5.373978218669 Bohr   0.0
[INPUT]  5 O      1.388288080900   2.079556156200  -1.347085675300 AA    2.623484254899   3.929791595871  -2.545622992642 Bohr   0.0
[INPUT]  6 O     -0.759908859500   2.580923634700  -0.849227704000 AA   -1.436019624086   4.877238818000  -1.604807777953 Bohr   0.0
[INPUT]  7 C      0.346567468600   2.753895325000  -1.438835699000 AA    0.654917599338   5.204107939970  -2.719005409357 Bohr   0.0
[INPUT]  8 H      0.372379614500   3.617699659800  -2.123091150300 AA    0.703695485776   6.836461557954  -4.012060811555 Bohr   0.0
[INPUT]  9 O      1.046960908100  -2.642534200000   0.961324672200 AA    1.978469379435  -4.993665912797   1.816640347245 Bohr   0.0
[INPUT] 10 O     -0.399190300300   2.220198244100   1.694471698900 AA   -0.754360339150   4.195566623589   3.202087436747 Bohr   0.0
[INPUT] 11 O      1.782306321700   1.685553244600   1.431399507200 AA    3.368070818094   3.185234000666   2.704953043445 Bohr   0.0
[INPUT] 12 C      0.831955037900   2.268517865100   1.983951274000 AA    1.572167169583   4.286877473722   3.749124552342 Bohr   0.0
[INPUT] 13 H      1.076728588500   2.913342016700   2.843786805300 AA    2.034722142755   5.505418518751   5.373978218669 Bohr   0.0
[INPUT] 14 O     -2.079556156200  -1.388288080900  -1.347085675300 AA   -3.929791595871  -2.623484254899  -2.545622992642 Bohr   0.0
[INPUT] 15 O     -2.580923634700   0.759908859500  -0.849227704000 AA   -4.877238818000   1.436019624086  -1.604807777953 Bohr   0.0
[INPUT] 16 C     -2.753895325000  -0.346567468600  -1.438835699000 AA   -5.204107939970  -0.654917599338  -2.719005409357 Bohr   0.0
[INPUT] 17 H     -3.617699659800  -0.372379614500  -2.123091150300 AA   -6.836461557954  -0.703695485776  -4.012060811555 Bohr   0.0
[INPUT] 18 Fe    -0.379874189300  -1.792603362900  -0.200337730300 AA   -0.717858179568  -3.387529405855  -0.378583442684 Bohr   0.0
[INPUT] 19 O      0.642223180300  -2.237796553000  -1.892914517600 AA    1.213625921614  -4.228822607666  -3.577090015477 Bohr   0.0
[INPUT] 20 Fe     1.792603362900   0.379874189300  -0.200337730300 AA    3.387529405855   0.717858179568  -0.378583442684 Bohr   0.0
[INPUT] 21 O      2.237796553000  -0.642223180300  -1.892914517600 AA    4.228822607666  -1.213625921614  -3.577090015477 Bohr   0.0
[INPUT] 22 O      2.642534200000  -1.046960908100   0.961324672200 AA    4.993665912797  -1.978469379435   1.816640347245 Bohr   0.0
[INPUT] 23 Al    -1.236271642100   1.236271642100   0.350650148000 AA   -2.336214819135   2.336214819135   0.662632745258 Bohr   0.0
[INPUT] 24 O     -0.044950195400   0.044950195400   0.012762141300 AA   -0.084943558552   0.084943558552   0.024116951820 Bohr   0.0
[INPUT] 25 C      1.645528685000  -1.645528685000  -2.357112465400 AA    3.109598544766  -3.109598544766  -4.454297004404 Bohr   0.0
[INPUT] 26 H      2.056906298400  -2.056906298400  -3.294571291600 AA    3.886989567869  -3.886989567869  -6.225837438979 Bohr   0.0
[INPUT] 27 C      2.160924281100  -2.160924281100   1.277584186800 AA    4.083555067202  -4.083555067202   2.414284214127 Bohr   0.0
[INPUT] 28 H      2.796080543300  -2.796080543300   1.918244302400 AA    5.283826449062  -5.283826449062   3.624956371543 Bohr   0.0

nuclear repulsion = 3455.30471244119
number of shells = 192
number of NR pGTOs = 1065
number of NR cGTOs = 674
basis = {'C': 'cc-pvdz', 'H': 'cc-pvdz', 'O': 'cc-pvtz', 'Al': 'cc-pvtz', 'Fe': 'cc-pvtz'}
ecp = {}
CPU time:         2.56


******** <class 'pyscf.df.df_jk.DFROHF'> ********
method = DFROHF
initial guess = atom
damping factor = 0
level_shift factor = 0
DIIS = <class 'pyscf.scf.diis.CDIIS'>
diis_start_cycle = 1
diis_space = 8
diis_damp = 0
SCF conv_tol = 1e-09
SCF conv_tol_grad = None
SCF max_cycles = 1
direct_scf = False
chkfile to save SCF result = /scratch/local/jobs/17478219/tmp9fmfh1zj
max_memory 128000 MB (current use 76 MB)
num. doubly occ = 101  num. singly occ = 9
Set gradient conv threshold to 3.16228e-05
Initial guess from the superpostion of atomic densties.
Spherically averaged atomic HF for {'H', 'C', 'O', 'Al', 'Fe'}


******** <class 'pyscf.scf.atom_hf.AtomSphAverageRHF'> ********
method = AtomSphAverageRHF
initial guess = minao
damping factor = 0
level_shift factor = 0
DIIS = <class 'pyscf.scf.diis.CDIIS'>
diis_start_cycle = 1
diis_space = 8
diis_damp = 0
SCF conv_tol = 1e-09
SCF conv_tol_grad = None
SCF max_cycles = 50
direct_scf = True
direct_scf_tol = 1e-13
chkfile to save SCF result = /scratch/local/jobs/17478219/tmpvbu7a_kx
max_memory 128000 MB (current use 76 MB)
atom = O
Set gradient conv threshold to 3.16228e-05
Initial guess from minao.
init E= -74.2776996160121
cycle= 1 E= -74.2879632957298  delta_E= -0.0103  |g|=    0  |ddm|= 0.12
cycle= 2 E= -74.2889455295058  delta_E= -0.000982  |g|=    0  |ddm|= 0.0571
cycle= 3 E= -74.2891874928551  delta_E= -0.000242  |g|=    0  |ddm|= 0.0164
cycle= 4 E= -74.2891907662377  delta_E= -3.27e-06  |g|=    0  |ddm|= 0.00334
cycle= 5 E= -74.2891907667003  delta_E= -4.63e-10  |g|=    0  |ddm|= 2.73e-05
Extra cycle  E= -74.2891907667016  delta_E= -1.36e-12  |g|=    0  |ddm|= 2.08e-06
Atomic HF for atom  O  converged. SCF energy = -74.2891907667016



******** <class 'pyscf.scf.atom_hf.AtomSphAverageRHF'> ********
method = AtomSphAverageRHF
initial guess = minao
damping factor = 0
level_shift factor = 0
DIIS = <class 'pyscf.scf.diis.CDIIS'>
diis_start_cycle = 1
diis_space = 8
diis_damp = 0
SCF conv_tol = 1e-09
SCF conv_tol_grad = None
SCF max_cycles = 50
direct_scf = True
direct_scf_tol = 1e-13
chkfile to save SCF result = /scratch/local/jobs/17478219/tmpow6uqgsc
max_memory 128000 MB (current use 96 MB)
atom = C
Set gradient conv threshold to 3.16228e-05
Initial guess from minao.
init E= -37.2786538116583
cycle= 1 E= -37.3229525149147  delta_E= -0.0443  |g|=    0  |ddm|= 0.403
cycle= 2 E= -37.3269979443145  delta_E= -0.00405  |g|=    0  |ddm|= 0.158
cycle= 3 E= -37.3274168905011  delta_E= -0.000419  |g|=    0  |ddm|= 0.0324
cycle= 4 E= -37.3274218270201  delta_E= -4.94e-06  |g|=    0  |ddm|= 0.00651
cycle= 5 E= -37.3274218271774  delta_E= -1.57e-10  |g|=    0  |ddm|= 2.35e-05
Extra cycle  E= -37.3274218271781  delta_E= -6.61e-13  |g|=    0  |ddm|= 2.26e-06
Atomic HF for atom  C  converged. SCF energy = -37.3274218271781



******** 1 electron system ********
Atomic HF for atom  H  converged. SCF energy = -0.499278403419583



******** <class 'pyscf.scf.atom_hf.AtomSphAverageRHF'> ********
method = AtomSphAverageRHF
initial guess = minao
damping factor = 0
level_shift factor = 0
DIIS = <class 'pyscf.scf.diis.CDIIS'>
diis_start_cycle = 1
diis_space = 8
diis_damp = 0
SCF conv_tol = 1e-09
SCF conv_tol_grad = None
SCF max_cycles = 50
direct_scf = True
direct_scf_tol = 1e-13
chkfile to save SCF result = /scratch/local/jobs/17478219/tmp0qc9atkj
max_memory 128000 MB (current use 97 MB)
atom = Fe
Set gradient conv threshold to 3.16228e-05
Initial guess from minao.
init E= -1260.96738533155
cycle= 1 E= -1256.37714318082  delta_E= 4.59  |g|=    0  |ddm|= 4.24
cycle= 2 E= -1255.54237595451  delta_E= 0.835  |g|=    0  |ddm|=   15
cycle= 3 E= -1260.89038467173  delta_E= -5.35  |g|=    0  |ddm|= 13.7
cycle= 4 E= -1261.57047534209  delta_E= -0.68  |g|=    0  |ddm|= 0.824
cycle= 5 E= -1261.57622492119  delta_E= -0.00575  |g|=    0  |ddm|= 0.301
cycle= 6 E= -1261.57666902676  delta_E= -0.000444  |g|=    0  |ddm|= 0.0322
cycle= 7 E= -1261.57674274459  delta_E= -7.37e-05  |g|=    0  |ddm|= 0.0137
cycle= 8 E= -1261.57674388082  delta_E= -1.14e-06  |g|=    0  |ddm|= 0.00344
cycle= 9 E= -1261.57674388923  delta_E= -8.41e-09  |g|=    0  |ddm|= 0.000127
cycle= 10 E= -1261.57674388923  delta_E= -1.36e-12  |g|=    0  |ddm|= 3.35e-06
Extra cycle  E= -1261.57674388923  delta_E= -2.27e-13  |g|=    0  |ddm|= 3.97e-07
Atomic HF for atom  Fe  converged. SCF energy = -1261.57674388923



******** <class 'pyscf.scf.atom_hf.AtomSphAverageRHF'> ********
method = AtomSphAverageRHF
initial guess = minao
damping factor = 0
level_shift factor = 0
DIIS = <class 'pyscf.scf.diis.CDIIS'>
diis_start_cycle = 1
diis_space = 8
diis_damp = 0
SCF conv_tol = 1e-09
SCF conv_tol_grad = None
SCF max_cycles = 50
direct_scf = True
direct_scf_tol = 1e-13
chkfile to save SCF result = /scratch/local/jobs/17478219/tmpypho_2ty
max_memory 128000 MB (current use 134 MB)
atom = Al
Set gradient conv threshold to 3.16228e-05
Initial guess from minao.
init E= -241.752580224975
cycle= 1 E= -241.774394279578  delta_E= -0.0218  |g|=    0  |ddm|= 0.33
cycle= 2 E= -241.774822880148  delta_E= -0.000429  |g|=    0  |ddm|= 0.0589
cycle= 3 E= -241.77484101355  delta_E= -1.81e-05  |g|=    0  |ddm|= 0.00725
cycle= 4 E= -241.774841578884  delta_E= -5.65e-07  |g|=    0  |ddm|= 0.00216
cycle= 5 E= -241.774841604663  delta_E= -2.58e-08  |g|=    0  |ddm|= 0.000719
cycle= 6 E= -241.774841604811  delta_E= -1.48e-10  |g|=    0  |ddm|= 5.97e-05
Extra cycle  E= -241.774841604812  delta_E= -1.48e-12  |g|=    0  |ddm|= 4.44e-06
Atomic HF for atom  Al  converged. SCF energy = -241.774841604812

******** <class 'pyscf.df.df.DF'> ********
auxbasis = None
max_memory = 128000
Even tempered Gaussians are generated as DF auxbasis for  H C Fe O Al
init E= -3975.68788353038
  HOMO = -0.0424478076029247  LUMO = -0.0316668341931104
cycle= 1 E= -3969.65777955844  delta_E= 6.03  |g|= 3.14  |ddm|= 4.67
SCF not converged.
SCF energy = -3969.65777955844
Built 4 spin(local Sz)-shuffled LAS states from 1 reference LAS states
Built 28 singly-excited LAS states from 5 reference LAS states
Entering product-state fixed-point CI iteration
Cycle 0: max grad = 1.884708e-01 ; sigma = 0.000000e+00
Cycle 1: max grad = 1.229424e-05 ; sigma = 3.346305e-02
Cycle 2: max grad = 2.560975e-06 ; sigma = 8.626699e-11
Product_state fixed-point CI iteration converged after 2 cycles
Entering product-state fixed-point CI iteration
Cycle 0: max grad = 1.884708e-01 ; sigma = 0.000000e+00
Cycle 1: max grad = 5.393863e-06 ; sigma = 3.348211e-02
Cycle 2: max grad = 2.369173e-06 ; sigma = 5.279333e-12
Product_state fixed-point CI iteration converged after 2 cycles
Entering product-state fixed-point CI iteration
Cycle 0: max grad = 1.884708e-01 ; sigma = 0.000000e+00
Cycle 1: max grad = 3.475708e-06 ; sigma = 3.349033e-02
Cycle 2: max grad = 2.276478e-06 ; sigma = 6.238565e-12
Product_state fixed-point CI iteration converged after 2 cycles
Entering product-state fixed-point CI iteration
Cycle 0: max grad = 1.884708e-01 ; sigma = 0.000000e+00
Cycle 1: max grad = 3.522775e-06 ; sigma = 3.348759e-02
Cycle 2: max grad = 2.308122e-06 ; sigma = 8.554935e-12
Product_state fixed-point CI iteration converged after 2 cycles
Entering product-state fixed-point CI iteration
Cycle 0: max grad = 1.884708e-01 ; sigma = 0.000000e+00
Cycle 1: max grad = 8.368410e-06 ; sigma = 3.347392e-02
Cycle 2: max grad = 2.455328e-06 ; sigma = 1.880807e-11
Product_state fixed-point CI iteration converged after 2 cycles
Entering product-state fixed-point CI iteration
Cycle 0: max grad = 2.784311e-01 ; sigma = 0.000000e+00
Cycle 1: max grad = 4.634879e-05 ; sigma = 5.318269e-02
Cycle 2: max grad = 5.292951e-07 ; sigma = 5.085563e-08
Cycle 3: max grad = 8.523436e-10 ; sigma = 6.110668e-13
Product_state fixed-point CI iteration converged after 3 cycles
Entering product-state fixed-point CI iteration
Cycle 0: max grad = 3.067236e-01 ; sigma = 0.000000e+00
Cycle 1: max grad = 5.992311e-04 ; sigma = 1.169371e-01
Cycle 2: max grad = 2.250365e-06 ; sigma = 4.611400e-06
Cycle 3: max grad = 9.943609e-07 ; sigma = 9.080736e-12
Product_state fixed-point CI iteration converged after 3 cycles
Entering product-state fixed-point CI iteration
Cycle 0: max grad = 2.327562e-01 ; sigma = 0.000000e+00
Cycle 1: max grad = 5.648643e-04 ; sigma = 4.391494e-02
Cycle 2: max grad = 4.292256e-06 ; sigma = 2.400541e-06
Cycle 3: max grad = 8.594107e-07 ; sigma = 5.918821e-12
Product_state fixed-point CI iteration converged after 3 cycles
Entering product-state fixed-point CI iteration
Cycle 0: max grad = 3.083310e-01 ; sigma = 0.000000e+00
Cycle 1: max grad = 1.806373e-04 ; sigma = 5.815313e-03
Cycle 2: max grad = 3.471513e-06 ; sigma = 1.001354e-06
Cycle 3: max grad = 3.580480e-06 ; sigma = 1.040874e-10
Cycle 4: max grad = 1.643296e-06 ; sigma = 2.643219e-12
Product_state fixed-point CI iteration converged after 4 cycles
Entering product-state fixed-point CI iteration
Cycle 0: max grad = 2.551366e-01 ; sigma = 0.000000e+00
Cycle 1: max grad = 2.036378e-04 ; sigma = 8.150694e-02
Cycle 2: max grad = 1.928086e-06 ; sigma = 9.333423e-07
Cycle 3: max grad = 8.431799e-07 ; sigma = 2.671356e-10
Cycle 4: max grad = 4.869203e-07 ; sigma = 1.116618e-11
Product_state fixed-point CI iteration converged after 4 cycles
Entering product-state fixed-point CI iteration
Cycle 0: max grad = 3.077537e-01 ; sigma = 0.000000e+00
Cycle 1: max grad = 3.556113e-04 ; sigma = 3.436487e-02
Cycle 2: max grad = 1.955002e-06 ; sigma = 2.408482e-07
Cycle 3: max grad = 1.232657e-06 ; sigma = 1.877964e-11
Product_state fixed-point CI iteration converged after 3 cycles
Entering product-state fixed-point CI iteration
Cycle 0: max grad = 2.785850e-01 ; sigma = 0.000000e+00
Cycle 1: max grad = 4.595661e-05 ; sigma = 5.318012e-02
Cycle 2: max grad = 5.618072e-07 ; sigma = 5.927163e-08
Cycle 3: max grad = 7.166695e-10 ; sigma = 6.608047e-13
Product_state fixed-point CI iteration converged after 3 cycles
Entering product-state fixed-point CI iteration
Cycle 0: max grad = 3.067052e-01 ; sigma = 0.000000e+00
Cycle 1: max grad = 5.861469e-04 ; sigma = 1.170948e-01
Cycle 2: max grad = 2.135161e-06 ; sigma = 4.179263e-06
Cycle 3: max grad = 1.320258e-06 ; sigma = 9.038104e-12
Product_state fixed-point CI iteration converged after 3 cycles
Entering product-state fixed-point CI iteration
Cycle 0: max grad = 2.327512e-01 ; sigma = 0.000000e+00
Cycle 1: max grad = 5.626359e-04 ; sigma = 4.458519e-02
Cycle 2: max grad = 4.646999e-06 ; sigma = 4.939012e-06
Cycle 3: max grad = 6.020661e-07 ; sigma = 1.308109e-11
Product_state fixed-point CI iteration converged after 3 cycles
Entering product-state fixed-point CI iteration
Cycle 0: max grad = 3.083128e-01 ; sigma = 0.000000e+00
Cycle 1: max grad = 2.345229e-04 ; sigma = 5.828458e-03
Cycle 2: max grad = 5.566392e-06 ; sigma = 1.777866e-06
Cycle 3: max grad = 1.318146e-06 ; sigma = 3.041691e-10
Cycle 4: max grad = 1.083318e-06 ; sigma = 3.375078e-12
Product_state fixed-point CI iteration converged after 4 cycles
Entering product-state fixed-point CI iteration
Cycle 0: max grad = 2.550410e-01 ; sigma = 0.000000e+00
Cycle 1: max grad = 2.379875e-04 ; sigma = 8.171111e-02
Cycle 2: max grad = 1.927086e-06 ; sigma = 1.317811e-06
Cycle 3: max grad = 9.762213e-07 ; sigma = 3.389609e-10
Cycle 4: max grad = 5.648514e-07 ; sigma = 1.478639e-11
Product_state fixed-point CI iteration converged after 4 cycles
Entering product-state fixed-point CI iteration
Cycle 0: max grad = 3.077285e-01 ; sigma = 0.000000e+00
Cycle 1: max grad = 3.454360e-04 ; sigma = 3.460276e-02
Cycle 2: max grad = 2.317995e-06 ; sigma = 4.272843e-07
Cycle 3: max grad = 1.132493e-06 ; sigma = 8.860468e-12
Product_state fixed-point CI iteration converged after 3 cycles
Entering product-state fixed-point CI iteration
Cycle 0: max grad = 2.786705e-01 ; sigma = 0.000000e+00
Cycle 1: max grad = 4.651225e-05 ; sigma = 5.317862e-02
Cycle 2: max grad = 5.794670e-07 ; sigma = 6.407416e-08
Cycle 3: max grad = 6.451034e-10 ; sigma = 6.465939e-13
Product_state fixed-point CI iteration converged after 3 cycles
Entering product-state fixed-point CI iteration
Cycle 0: max grad = 3.067015e-01 ; sigma = 0.000000e+00
Cycle 1: max grad = 5.835233e-04 ; sigma = 1.171264e-01
Cycle 2: max grad = 2.112375e-06 ; sigma = 4.118257e-06
Cycle 3: max grad = 1.202589e-06 ; sigma = 7.418066e-12
Product_state fixed-point CI iteration converged after 3 cycles
Entering product-state fixed-point CI iteration
Cycle 0: max grad = 2.327502e-01 ; sigma = 0.000000e+00
Cycle 1: max grad = 5.629732e-04 ; sigma = 4.471923e-02
Cycle 2: max grad = 4.715402e-06 ; sigma = 5.349624e-06
Cycle 3: max grad = 5.617916e-07 ; sigma = 1.446665e-11
Product_state fixed-point CI iteration converged after 3 cycles
Entering product-state fixed-point CI iteration
Cycle 0: max grad = 3.083092e-01 ; sigma = 0.000000e+00
Cycle 1: max grad = 2.491446e-04 ; sigma = 5.831027e-03
Cycle 2: max grad = 6.002161e-06 ; sigma = 1.870328e-06
Cycle 3: max grad = 1.760538e-06 ; sigma = 3.921841e-10
Cycle 4: max grad = 1.220893e-06 ; sigma = 1.053024e-11
Product_state fixed-point CI iteration converged after 4 cycles
Entering product-state fixed-point CI iteration
Cycle 0: max grad = 2.550219e-01 ; sigma = 0.000000e+00
Cycle 1: max grad = 2.449739e-04 ; sigma = 8.175297e-02
Cycle 2: max grad = 1.955722e-06 ; sigma = 1.402521e-06
Cycle 3: max grad = 1.005238e-06 ; sigma = 3.552358e-10
Cycle 4: max grad = 5.831845e-07 ; sigma = 1.568523e-11
Product_state fixed-point CI iteration converged after 4 cycles
Entering product-state fixed-point CI iteration
Cycle 0: max grad = 3.077235e-01 ; sigma = 0.000000e+00
Cycle 1: max grad = 3.433519e-04 ; sigma = 3.465135e-02
Cycle 2: max grad = 2.389028e-06 ; sigma = 4.710340e-07
Cycle 3: max grad = 1.062282e-06 ; sigma = 6.529888e-12
Product_state fixed-point CI iteration converged after 3 cycles
Entering product-state fixed-point CI iteration
Cycle 0: max grad = 2.786876e-01 ; sigma = 0.000000e+00
Cycle 1: max grad = 4.673089e-05 ; sigma = 5.317831e-02
Cycle 2: max grad = 5.829607e-07 ; sigma = 6.504431e-08
Cycle 3: max grad = 6.311473e-10 ; sigma = 6.750156e-13
Product_state fixed-point CI iteration converged after 3 cycles
Entering product-state fixed-point CI iteration
Cycle 0: max grad = 3.067125e-01 ; sigma = 0.000000e+00
Cycle 1: max grad = 5.913872e-04 ; sigma = 1.170316e-01
Cycle 2: max grad = 2.179901e-06 ; sigma = 4.326966e-06
Cycle 3: max grad = 2.905984e-07 ; sigma = 7.275958e-12
Product_state fixed-point CI iteration converged after 3 cycles
Entering product-state fixed-point CI iteration
Cycle 0: max grad = 2.327532e-01 ; sigma = 0.000000e+00
Cycle 1: max grad = 5.619537e-04 ; sigma = 4.431709e-02
Cycle 2: max grad = 4.507687e-06 ; sigma = 4.019992e-06
Cycle 3: max grad = 6.936838e-07 ; sigma = 1.058709e-11
Product_state fixed-point CI iteration converged after 3 cycles
Entering product-state fixed-point CI iteration
Cycle 0: max grad = 3.083201e-01 ; sigma = 0.000000e+00
Cycle 1: max grad = 2.055908e-04 ; sigma = 5.823260e-03
Cycle 2: max grad = 4.711353e-06 ; sigma = 1.531160e-06
Cycle 3: max grad = 2.353117e-06 ; sigma = 2.384155e-10
Cycle 4: max grad = 1.042747e-06 ; sigma = 9.166001e-12
Product_state fixed-point CI iteration converged after 4 cycles
Entering product-state fixed-point CI iteration
Cycle 0: max grad = 2.550792e-01 ; sigma = 0.000000e+00
Cycle 1: max grad = 2.241311e-04 ; sigma = 8.162841e-02
Cycle 2: max grad = 1.913730e-06 ; sigma = 1.156262e-06
Cycle 3: max grad = 9.208399e-07 ; sigma = 3.084608e-10
Cycle 4: max grad = 5.292846e-07 ; sigma = 1.309530e-11
Product_state fixed-point CI iteration converged after 4 cycles
Entering product-state fixed-point CI iteration
Cycle 0: max grad = 3.077386e-01 ; sigma = 0.000000e+00
Cycle 1: max grad = 3.495559e-04 ; sigma = 3.450660e-02
Cycle 2: max grad = 2.174276e-06 ; sigma = 3.461726e-07
Cycle 3: max grad = 1.213587e-06 ; sigma = 1.325873e-11
Product_state fixed-point CI iteration converged after 3 cycles
Entering product-state fixed-point CI iteration
Cycle 0: max grad = 2.786363e-01 ; sigma = 0.000000e+00
Cycle 1: max grad = 4.607566e-05 ; sigma = 5.317923e-02
Cycle 2: max grad = 5.724407e-07 ; sigma = 6.214314e-08
Cycle 3: max grad = 6.733783e-10 ; sigma = 6.963319e-13
Product_state fixed-point CI iteration converged after 3 cycles
Entering product-state fixed-point CI iteration
Cycle 0: max grad = 2.327602e-01 ; sigma = 0.000000e+00
Cycle 1: max grad = 6.209126e-04 ; sigma = 4.337872e-02
Cycle 2: max grad = 3.992423e-06 ; sigma = 1.978465e-07
Cycle 3: max grad = 1.137854e-06 ; sigma = 3.961276e-12
Product_state fixed-point CI iteration converged after 3 cycles
Entering product-state fixed-point CI iteration
Cycle 0: max grad = 3.077738e-01 ; sigma = 0.000000e+00
Cycle 1: max grad = 3.634427e-04 ; sigma = 3.418067e-02
Cycle 2: max grad = 3.346335e-06 ; sigma = 1.317946e-07
Cycle 3: max grad = 4.962140e-07 ; sigma = 9.585222e-12
Product_state fixed-point CI iteration converged after 3 cycles
Entering product-state fixed-point CI iteration
Cycle 0: max grad = 2.785166e-01 ; sigma = 0.000000e+00
Cycle 1: max grad = 4.605856e-05 ; sigma = 5.318129e-02
Cycle 2: max grad = 5.474639e-07 ; sigma = 5.549294e-08
Cycle 3: max grad = 7.759522e-10 ; sigma = 5.684342e-13
Product_state fixed-point CI iteration converged after 3 cycles
LASSCF state-average energy = -3971.89018525224
LASSCF state 0 energy = -3971.89018525224
LASSCF state 1 energy = -3971.89049467745
LASSCF state 2 energy = -3971.8906273398
LASSCF state 3 energy = -3971.89058311557
LASSCF state 4 energy = -3971.89036204604
LASSCF state 5 energy = -3969.48093908276
LASSCF state 6 energy = -3970.98995513759
LASSCF state 7 energy = -3969.569277641
LASSCF state 8 energy = -3971.5111195471
LASSCF state 9 energy = -3969.35032714229
LASSCF state 10 energy = -3971.64263382622
LASSCF state 11 energy = -3969.48199401442
LASSCF state 12 energy = -3970.99011278563
LASSCF state 13 energy = -3969.56971596364
LASSCF state 14 energy = -3971.51146460594
LASSCF state 15 energy = -3969.3507335344
LASSCF state 16 energy = -3971.64312475168
LASSCF state 17 energy = -3969.48258018069
LASSCF state 18 energy = -3970.99014433942
LASSCF state 19 energy = -3969.56980395116
LASSCF state 20 energy = -3971.51153490949
LASSCF state 21 energy = -3969.35081586567
LASSCF state 22 energy = -3971.64322411903
LASSCF state 23 energy = -3969.48269742185
LASSCF state 24 energy = -3970.99004970236
LASSCF state 25 energy = -3969.56954031213
LASSCF state 26 energy = -3971.51132530586
LASSCF state 27 energy = -3969.35056993026
LASSCF state 28 energy = -3971.64292719394
LASSCF state 29 energy = -3969.48234570627
LASSCF state 30 energy = -3969.56892890982
LASSCF state 31 energy = -3971.64224828029
LASSCF state 32 energy = -3969.48152512913
Entering product-state fixed-point CI iteration
Cycle 0: max grad = 1.000401e+03 ; sigma = 0.000000e+00
Cycle 1: max grad = 2.431079e-05 ; sigma = 6.296830e-11
Product_state fixed-point CI iteration converged after 1 cycles
Entering product-state fixed-point CI iteration
Cycle 0: max grad = 1.000454e+03 ; sigma = 0.000000e+00
Cycle 1: max grad = 2.587174e-05 ; sigma = 5.988454e-11
Product_state fixed-point CI iteration converged after 1 cycles
Entering product-state fixed-point CI iteration
Cycle 0: max grad = 1.000477e+03 ; sigma = 0.000000e+00
Cycle 1: max grad = 3.842660e-05 ; sigma = 5.863399e-11
Product_state fixed-point CI iteration converged after 1 cycles
Entering product-state fixed-point CI iteration
Cycle 0: max grad = 1.000469e+03 ; sigma = 0.000000e+00
Cycle 1: max grad = 4.163970e-05 ; sigma = 5.904610e-11
Product_state fixed-point CI iteration converged after 1 cycles
Entering product-state fixed-point CI iteration
Cycle 0: max grad = 1.000431e+03 ; sigma = 0.000000e+00
Cycle 1: max grad = 3.023198e-05 ; sigma = 6.117062e-11
Product_state fixed-point CI iteration converged after 1 cycles
Entering product-state fixed-point CI iteration
Cycle 0: max grad = 5.987776e+02 ; sigma = 0.000000e+00
Cycle 1: max grad = 9.179565e-12 ; sigma = 1.065814e-14
Product_state fixed-point CI iteration converged after 1 cycles
Entering product-state fixed-point CI iteration
Cycle 0: max grad = 9.255597e+02 ; sigma = 0.000000e+00
Cycle 1: max grad = 2.088643e-06 ; sigma = 9.244872e-11
Product_state fixed-point CI iteration converged after 1 cycles
Entering product-state fixed-point CI iteration
Cycle 0: max grad = 6.437253e+02 ; sigma = 0.000000e+00
Cycle 1: max grad = 1.517394e-06 ; sigma = 6.604850e-11
Product_state fixed-point CI iteration converged after 1 cycles
Entering product-state fixed-point CI iteration
Cycle 0: max grad = 6.339588e+02 ; sigma = 0.000000e+00
Cycle 1: max grad = 1.069543e-03 ; sigma = 1.180172e-03
Cycle 2: max grad = 8.296244e-06 ; sigma = 1.799094e-07
Cycle 3: max grad = 1.519826e-06 ; sigma = 1.067946e-11
Product_state fixed-point CI iteration converged after 3 cycles
Entering product-state fixed-point CI iteration
Cycle 0: max grad = 6.313853e+02 ; sigma = 0.000000e+00
Cycle 1: max grad = 1.884066e-04 ; sigma = 1.215504e-03
Cycle 2: max grad = 1.650747e-06 ; sigma = 4.569067e-07
Cycle 3: max grad = 1.894345e-06 ; sigma = 2.384937e-11
Product_state fixed-point CI iteration converged after 3 cycles
Entering product-state fixed-point CI iteration
Cycle 0: max grad = 8.341076e+02 ; sigma = 0.000000e+00
Cycle 1: max grad = 2.766182e-03 ; sigma = 3.284129e-11
Cycle 2: max grad = 6.238511e-05 ; sigma = 8.526513e-14
Product_state fixed-point CI iteration converged after 2 cycles
Entering product-state fixed-point CI iteration
Cycle 0: max grad = 5.987715e+02 ; sigma = 0.000000e+00
Cycle 1: max grad = 8.075697e-12 ; sigma = 2.131628e-14
Product_state fixed-point CI iteration converged after 1 cycles
Entering product-state fixed-point CI iteration
Cycle 0: max grad = 9.252304e+02 ; sigma = 0.000000e+00
Cycle 1: max grad = 2.615911e-06 ; sigma = 9.057999e-11
Product_state fixed-point CI iteration converged after 1 cycles
Entering product-state fixed-point CI iteration
Cycle 0: max grad = 6.437269e+02 ; sigma = 0.000000e+00
Cycle 1: max grad = 9.094189e-07 ; sigma = 8.449064e-11
Product_state fixed-point CI iteration converged after 1 cycles
Entering product-state fixed-point CI iteration
Cycle 0: max grad = 8.342796e+02 ; sigma = 0.000000e+00
Cycle 1: max grad = 1.368180e-03 ; sigma = 1.431940e-03
Cycle 2: max grad = 5.959918e-05 ; sigma = 5.088458e-07
Cycle 3: max grad = 2.269570e-06 ; sigma = 3.465885e-10
Cycle 4: max grad = 1.993841e-06 ; sigma = 2.515321e-12
Product_state fixed-point CI iteration converged after 4 cycles
Entering product-state fixed-point CI iteration
Cycle 0: max grad = 6.242944e+02 ; sigma = 0.000000e+00
Cycle 1: max grad = 1.683817e-04 ; sigma = 1.541943e-03
Cycle 2: max grad = 1.187495e-06 ; sigma = 2.170459e-07
Cycle 3: max grad = 1.394546e-06 ; sigma = 1.904610e-11
Product_state fixed-point CI iteration converged after 3 cycles
Entering product-state fixed-point CI iteration
Cycle 0: max grad = 8.368004e+02 ; sigma = 0.000000e+00
Cycle 1: max grad = 2.676975e-03 ; sigma = 2.380318e-11
Cycle 2: max grad = 1.929822e-04 ; sigma = 2.202682e-13
Cycle 3: max grad = 1.889108e-06 ; sigma = 1.776357e-13
Product_state fixed-point CI iteration converged after 3 cycles
Entering product-state fixed-point CI iteration
Cycle 0: max grad = 5.987680e+02 ; sigma = 0.000000e+00
Cycle 1: max grad = 7.703008e-12 ; sigma = 0.000000e+00
Product_state fixed-point CI iteration converged after 1 cycles
Entering product-state fixed-point CI iteration
Cycle 0: max grad = 9.251739e+02 ; sigma = 0.000000e+00
Cycle 1: max grad = 2.100832e-06 ; sigma = 7.781864e-11
Product_state fixed-point CI iteration converged after 1 cycles
Entering product-state fixed-point CI iteration
Cycle 0: max grad = 8.232990e+02 ; sigma = 0.000000e+00
Cycle 1: max grad = 1.630333e-06 ; sigma = 9.222489e-11
Product_state fixed-point CI iteration converged after 1 cycles
Entering product-state fixed-point CI iteration
Cycle 0: max grad = 8.346851e+02 ; sigma = 0.000000e+00
Cycle 1: max grad = 2.582327e-03 ; sigma = 1.484257e-03
Cycle 2: max grad = 1.042523e-05 ; sigma = 8.707189e-07
Cycle 3: max grad = 1.659588e-06 ; sigma = 8.767742e-10
Cycle 4: max grad = 1.281776e-06 ; sigma = 2.138734e-12
Product_state fixed-point CI iteration converged after 4 cycles
Entering product-state fixed-point CI iteration
Cycle 0: max grad = 6.228442e+02 ; sigma = 0.000000e+00
Cycle 1: max grad = 1.645098e-04 ; sigma = 1.608640e-03
Cycle 2: max grad = 1.261151e-06 ; sigma = 1.826413e-07
Cycle 3: max grad = 1.449262e-06 ; sigma = 1.806555e-11
Product_state fixed-point CI iteration converged after 3 cycles
Entering product-state fixed-point CI iteration
Cycle 0: max grad = 5.984848e+02 ; sigma = 0.000000e+00
Cycle 1: max grad = 2.703787e-03 ; sigma = 2.192735e-11
Cycle 2: max grad = 5.644934e-05 ; sigma = 1.989520e-13
Product_state fixed-point CI iteration converged after 2 cycles
Entering product-state fixed-point CI iteration
Cycle 0: max grad = 5.987673e+02 ; sigma = 0.000000e+00
Cycle 1: max grad = 7.731597e-12 ; sigma = 1.421085e-14
Product_state fixed-point CI iteration converged after 1 cycles
Entering product-state fixed-point CI iteration
Cycle 0: max grad = 9.253596e+02 ; sigma = 0.000000e+00
Cycle 1: max grad = 2.434348e-06 ; sigma = 1.218581e-11
Product_state fixed-point CI iteration converged after 1 cycles
Entering product-state fixed-point CI iteration
Cycle 0: max grad = 6.437263e+02 ; sigma = 0.000000e+00
Cycle 1: max grad = 1.026278e-06 ; sigma = 7.364775e-11
Product_state fixed-point CI iteration converged after 1 cycles
Entering product-state fixed-point CI iteration
Cycle 0: max grad = 8.334551e+02 ; sigma = 0.000000e+00
Cycle 1: max grad = 1.478882e-03 ; sigma = 1.329262e-03
Cycle 2: max grad = 1.430291e-05 ; sigma = 9.446354e-08
Cycle 3: max grad = 2.501070e-06 ; sigma = 1.860201e-11
Product_state fixed-point CI iteration converged after 3 cycles
Entering product-state fixed-point CI iteration
Cycle 0: max grad = 6.271632e+02 ; sigma = 0.000000e+00
Cycle 1: max grad = 1.762554e-04 ; sigma = 1.409890e-03
Cycle 2: max grad = 1.553258e-06 ; sigma = 2.990506e-07
Cycle 3: max grad = 1.974246e-06 ; sigma = 2.108891e-11
Product_state fixed-point CI iteration converged after 3 cycles
Entering product-state fixed-point CI iteration
Cycle 0: max grad = 5.984867e+02 ; sigma = 0.000000e+00
Cycle 1: max grad = 2.000964e-03 ; sigma = 2.756195e-11
Cycle 2: max grad = 1.716372e-05 ; sigma = 2.202682e-13
Product_state fixed-point CI iteration converged after 2 cycles
Entering product-state fixed-point CI iteration
Cycle 0: max grad = 5.987694e+02 ; sigma = 0.000000e+00
Cycle 1: max grad = 7.746772e-12 ; sigma = 9.947598e-14
Product_state fixed-point CI iteration converged after 1 cycles
Entering product-state fixed-point CI iteration
Cycle 0: max grad = 8.228765e+02 ; sigma = 0.000000e+00
Cycle 1: max grad = 1.336828e-06 ; sigma = 6.891199e-11
Product_state fixed-point CI iteration converged after 1 cycles
Entering product-state fixed-point CI iteration
Cycle 0: max grad = 8.317139e+02 ; sigma = 0.000000e+00
Cycle 1: max grad = 3.207810e-03 ; sigma = 1.083578e-11
Cycle 2: max grad = 1.258483e-04 ; sigma = 1.421085e-14
Cycle 3: max grad = 2.191218e-06 ; sigma = 4.263256e-14
Product_state fixed-point CI iteration converged after 3 cycles
Entering product-state fixed-point CI iteration
Cycle 0: max grad = 5.987742e+02 ; sigma = 0.000000e+00
Cycle 1: max grad = 8.543701e-12 ; sigma = 1.776357e-14
Product_state fixed-point CI iteration converged after 1 cycles
LASSCF state-average energy = -3971.8901852523
LASSCF state 0 energy = -3971.8901852523
LASSCF state 1 energy = -3971.89049467751
LASSCF state 2 energy = -3971.89062733986
LASSCF state 3 energy = -3971.89058311563
LASSCF state 4 energy = -3971.89036204611
LASSCF state 5 energy = -3969.48093908276
LASSCF state 6 energy = -3970.98995513768
LASSCF state 7 energy = -3969.56927764107
LASSCF state 8 energy = -3971.51229990126
LASSCF state 9 energy = -3969.35154310363
LASSCF state 10 energy = -3971.64263382626
LASSCF state 11 energy = -3969.48199401442
LASSCF state 12 energy = -3970.99011278572
LASSCF state 13 energy = -3969.56971596372
LASSCF state 14 energy = -3971.5128970515
LASSCF state 15 energy = -3969.3522756948
LASSCF state 16 energy = -3971.6431247517
LASSCF state 17 energy = -3969.48258018069
LASSCF state 18 energy = -3970.9901443395
LASSCF state 19 energy = -3969.56980395125
LASSCF state 20 energy = -3971.51302003568
LASSCF state 21 energy = -3969.35242468793
LASSCF state 22 energy = -3971.64322411905
LASSCF state 23 energy = -3969.48269742185
LASSCF state 24 energy = -3970.99004970238
LASSCF state 25 energy = -3969.56954031221
LASSCF state 26 energy = -3971.51265466075
LASSCF state 27 energy = -3969.35198011903
LASSCF state 28 energy = -3971.64292719396
LASSCF state 29 energy = -3969.48234570627
LASSCF state 30 energy = -3969.56892890989
LASSCF state 31 energy = -3971.6422482803
LASSCF state 32 energy = -3969.48152512913
LASSI op_o0 memory check: 1579673.280384 MB needed of 120052.666368 MB available (128000 MB max)
Symmetry analysis of 33 LAS rootspaces:
 ix            Energy  <S**2>  Neleca  Nelecb  Nelec   Wfnsym
  0  -3971.8901852523   4.750       6       5      11       A
  1  -3971.8904946775  11.750       6       5      11       A
  2  -3971.8906273399  14.750       6       5      11       A
  3  -3971.8905831156  13.750       6       5      11       A
  4  -3971.8903620461   8.750       6       5      11       A
  5  -3969.4809390828   5.750       6       5      11       A
  6  -3970.9899551377   3.750       6       5      11       A
  7  -3969.5692776411   8.750       6       5      11       A
  8  -3971.5122999013   3.750       6       5      11       A
  9  -3969.3515431036   9.750       6       5      11       A
 10  -3971.6426338263   8.750       6       5      11       A
 11  -3969.4819940144  14.750       6       5      11       A
 12  -3970.9901127857   8.750       6       5      11       A
 13  -3969.5697159637  13.750       6       5      11       A
 14  -3971.5128970515   8.750       6       5      11       A
 15  -3969.3522756948  14.750       6       5      11       A
 16  -3971.6431247517  13.750       6       5      11       A
 17  -3969.4825801807  19.750       6       5      11       A
 18  -3970.9901443395   9.750       6       5      11       A
 19  -3969.5698039513  14.750       6       5      11       A
 20  -3971.5130200357   9.750       6       5      11       A
 21  -3969.3524246879  15.750       6       5      11       A
 22  -3971.6432241191  14.750       6       5      11       A
 23  -3969.4826974219  20.750       6       5      11       A
 24  -3970.9900497024   6.750       6       5      11       A
 25  -3969.5695403122  11.750       6       5      11       A
 26  -3971.5126546607   6.750       6       5      11       A
 27  -3969.3519801190  12.750       6       5      11       A
 28  -3971.6429271940  11.750       6       5      11       A
 29  -3969.4823457063  17.750       6       5      11       A
 30  -3969.5689289099   4.750       6       5      11       A
 31  -3971.6422482803   4.750       6       5      11       A
 32  -3969.4815251291  10.750       6       5      11       A
Build + diag H matrix LASSI symmetry block 0
['neleca', 'nelecb', 'irrep'] = (6, 5, 0)
(33 rootspaces; 5577 states)
LASSI eigenvalues (5577 total):
 ix            Energy  <S**2>  Neleca  Nelecb  Wfnsym
  0  -3971.8915329126   0.815       6       5       A
  1  -3971.8915025587   3.702       6       5       A
  2  -3971.8914525532   8.735       6       5       A
  3  -3971.8913885265  15.748       6       5       A
  4  -3971.8913176320  24.750       6       5       A
  5  -3971.8720637746   0.750       6       5       A
  6  -3971.8719643228   3.750       6       5       A
  7  -3971.8717981184   8.750       6       5       A
  8  -3971.8715641091  15.750       6       5       A
  9  -3971.8712609454  24.750       6       5       A
 10  -3971.8707616487   0.750       6       5       A
 11  -3971.8706992721   3.750       6       5       A
 12  -3971.8705943858   8.750       6       5       A
 13  -3971.8704454147  15.750       6       5       A
 14  -3971.8702501437  24.750       6       5       A
 15  -3971.8472876818  24.750       6       5       A
 16  -3971.8470165416  15.750       6       5       A
 17  -3971.8467983109   8.748       6       5       A
 18  -3971.8466388784   3.745       6       5       A
 19  -3971.8465441250   0.756       6       5       A
 20  -3971.8247356441   0.755       6       5       A
 21  -3971.8247195309   3.747       6       5       A
 22  -3971.8246929139   8.749       6       5       A
 23  -3971.8246545713  15.750       6       5       A
 24  -3971.8246033188  24.750       6       5       A
 25  -3971.6435958724  24.750       6       5       A
 26  -3971.6429038587  15.750       6       5       A
 27  -3971.6423939458   8.750       6       5       A
 28  -3971.6420452507   3.750       6       5       A
 29  -3971.6418423149   0.750       6       5       A
 30  -3971.6416934159  24.750       6       5       A
 31  -3971.6405362904  15.750       6       5       A
 32  -3971.6396269944   8.750       6       5       A
 33  -3971.6389724482   3.750       6       5       A
 34  -3971.6385776781   0.750       6       5       A
 35  -3971.6357253097  24.750       6       5       A
 36  -3971.6345338832  15.750       6       5       A
 37  -3971.6335945743   8.750       6       5       A
 38  -3971.6329171487   3.750       6       5       A
 39  -3971.6325081743   0.750       6       5       A
 40  -3971.6269262489  24.750       6       5       A
 41  -3971.6265082548  15.750       6       5       A
 42  -3971.6261479085   8.750       6       5       A
 43  -3971.6258709040   3.750       6       5       A
 44  -3971.6256966682   0.750       6       5       A
 45  -3971.6008158021  24.750       6       5       A
 46  -3971.5994953058  15.750       6       5       A
 47  -3971.5984613447   8.750       6       5       A
 48  -3971.5977190280   3.750       6       5       A
 49  -3971.5972721031   0.750       6       5       A
 50  -3971.5140278359  15.750       6       5       A
 51  -3971.5133395751   8.750       6       5       A
 52  -3971.5128912164   3.750       6       5       A
 53  -3971.5126381278   0.750       6       5       A
 54  -3971.5120402481  15.750       6       5       A
 55  -3971.5115972657   8.750       6       5       A
 56  -3971.5115056306  15.750       6       5       A
 57  -3971.5112995612   3.750       6       5       A
 58  -3971.5111266483   0.750       6       5       A
 59  -3971.5102225282   8.750       6       5       A
 60  -3971.5100761072  15.750       6       5       A
 61  -3971.5095253275  15.750       6       5       A
 62  -3971.5094630467   8.750       6       5       A
 63  -3971.5093509610   3.750       6       5       A
 64  -3971.5090425901   3.750       6       5       A
 65  -3971.5088482184   0.750       6       5       A
 66  -3971.5088216455   8.750       6       5       A
 67  -3971.5087971453   0.750       6       5       A
 68  -3971.5083359877   3.750       6       5       A
 69  -3971.5080510371   0.750       6       5       A
 70  -3971.5076147663  15.750       6       5       A
 71  -3971.5065447026   8.750       6       5       A
 72  -3971.5057491737   3.750       6       5       A
 73  -3971.5055182229  15.750       6       5       A
 74  -3971.5052570689   0.750       6       5       A
 75  -3971.5042091903   8.750       6       5       A
 76  -3971.5035277579  15.750       6       5       A
 77  -3971.5033182639   3.750       6       5       A
 78  -3971.5028034501   0.750       6       5       A
 79  -3971.5027509847   8.750       6       5       A
 80  -3971.5022116778   3.750       6       5       A
 81  -3971.5018938868   0.750       6       5       A
 82  -3971.5016696725  15.750       6       5       A
 83  -3971.5005730830   8.750       6       5       A
 84  -3971.4997619222   3.750       6       5       A
 85  -3971.4992618823   0.750       6       5       A
 86  -3971.4974775689  15.750       6       5       A
 87  -3971.4968750346   8.750       6       5       A
 88  -3971.4964317812   3.750       6       5       A
 89  -3971.4961623427   0.750       6       5       A
 90  -3971.4959610549  15.750       6       5       A
 91  -3971.4955770232   8.750       6       5       A
 92  -3971.4953383370   3.750       6       5       A
 93  -3971.4952052986   0.750       6       5       A
 94  -3971.4945836754  15.750       6       5       A
 95  -3971.4944282342  15.750       6       5       A
 96  -3971.4941126872   8.750       6       5       A
 97  -3971.4937562712   3.753       6       5       A
 98  -3971.4937545453   8.747       6       5       A
 99  -3971.4935551336  15.750       6       5       A
Remaining 5477 eigenvalues truncated; increase verbosity to print them all
Natural-orbital analysis for state(s) [0, 1, 2, 3, 4]
LASSI op_o0 memory check: 1579673.280384 MB needed of 119164.489728 MB available (128000 MB max)
Delocalized natural orbitals do not reflect LAS fragmentation
Natural occ [1.98696392 1.03229048 1.0146352  1.00738823 1.00145335 0.99778353
 0.99281432 0.98666494 0.97940258 0.96176014 0.01195628 0.00422758
 0.00407005 0.00389665 0.00347734 0.00229516 0.00228845 0.00227194
 0.00224734 0.00211249]
Natural orbital (expansion on AOs) in CAS space
               #1        #2        #3        #4        #5       
0 O 1s          -0.00011  -0.00019   0.00013   0.00032  -0.00025
0 O 2s           0.00161   0.00122  -0.00068   0.00169   0.00119
0 O 3s           0.00057   0.00044  -0.00028   0.00040   0.00044
0 O 4s           0.00481   0.00417  -0.00120  -0.00279   0.00421
0 O 2px          0.00477   0.00029   0.00003   0.00555  -0.00064
0 O 2py          0.00047  -0.00144   0.00190   0.00152  -0.00186
0 O 2pz          0.00216   0.00107  -0.00169  -0.00217   0.00131
0 O 3px          0.00569   0.00056   0.00021   0.00665  -0.00048
0 O 3py          0.00040  -0.00151   0.00190   0.00154  -0.00203
0 O 3pz          0.00283   0.00118  -0.00187  -0.00260   0.00133
0 O 4px          0.00791   0.00001  -0.00021   0.00695  -0.00171
0 O 4py          0.00000  -0.00345   0.00442   0.00291  -0.00359
0 O 4pz          0.00398   0.00195  -0.00400  -0.00168   0.00278
0 O 3dxy         0.00012   0.00003  -0.00005   0.00003  -0.00001
0 O 3dyz         0.00007   0.00002   0.00001   0.00006   0.00002
0 O 3dz^2       -0.00003   0.00001  -0.00002  -0.00008  -0.00001
0 O 3dxz        -0.00004   0.00002   0.00001   0.00001   0.00006
0 O 3dx2-y2      0.00004   0.00002  -0.00003  -0.00006   0.00002
0 O 4dxy         0.00025  -0.00017  -0.00005  -0.00017  -0.00033
0 O 4dyz         0.00011   0.00023  -0.00004   0.00023   0.00041
0 O 4dz^2       -0.00016  -0.00017   0.00015  -0.00015  -0.00022
0 O 4dxz         0.00015   0.00001  -0.00008   0.00037   0.00019
0 O 4dx2-y2     -0.00017  -0.00003   0.00008  -0.00015  -0.00018
0 O 4f-3         0.00003   0.00003  -0.00005  -0.00001   0.00006
0 O 4f-2         0.00003   0.00000  -0.00003  -0.00006  -0.00003
0 O 4f-1        -0.00001   0.00003  -0.00002   0.00004   0.00007
0 O 4f+0         0.00001   0.00001   0.00001   0.00006   0.00003
0 O 4f+1        -0.00001   0.00000   0.00001  -0.00003  -0.00001
0 O 4f+2         0.00000  -0.00001   0.00002   0.00009   0.00004
0 O 4f+3         0.00003  -0.00001  -0.00002  -0.00005  -0.00007
1 O 1s           0.00030   0.00008   0.00020   0.00018  -0.00007
1 O 2s           0.00689  -0.00850   0.00271  -0.00145  -0.02336
1 O 3s           0.00194  -0.00246   0.00064  -0.00052  -0.00676
1 O 4s           0.01116  -0.01700   0.00180  -0.00534  -0.04044
1 O 2px         -0.00522  -0.00851   0.00785  -0.00318  -0.01445
1 O 2py         -0.00727  -0.00423   0.00872   0.00726  -0.00105
1 O 2pz         -0.00489   0.00839  -0.00581  -0.00966   0.01850
1 O 3px         -0.00592  -0.01116   0.01018  -0.00393  -0.01859
1 O 3py         -0.00816  -0.00548   0.01072   0.00902  -0.00257
1 O 3pz         -0.00593   0.01116  -0.00762  -0.01200   0.02393
1 O 4px         -0.01108  -0.01231   0.00909  -0.00351  -0.02017
1 O 4py         -0.01206  -0.00752   0.01247   0.00689  -0.00368
1 O 4pz         -0.00700   0.01230  -0.00653  -0.01471   0.02680
1 O 3dxy         0.00024  -0.00005  -0.00024  -0.00046  -0.00040
1 O 3dyz        -0.00086  -0.00005   0.00032   0.00021   0.00045
1 O 3dz^2       -0.00066   0.00019  -0.00007  -0.00056   0.00033
1 O 3dxz         0.00002  -0.00043   0.00014  -0.00008  -0.00089
1 O 3dx2-y2      0.00051   0.00033  -0.00031   0.00010   0.00027
1 O 4dxy         0.00038  -0.00024  -0.00089  -0.00118  -0.00094
1 O 4dyz        -0.00243  -0.00016   0.00079   0.00054   0.00120
1 O 4dz^2       -0.00268   0.00042  -0.00010  -0.00197   0.00064
1 O 4dxz        -0.00055  -0.00103   0.00060   0.00009  -0.00192
1 O 4dx2-y2      0.00215   0.00113  -0.00122   0.00078   0.00084
1 O 4f-3         0.00024   0.00013  -0.00026   0.00004   0.00015
1 O 4f-2        -0.00013  -0.00017   0.00021   0.00012  -0.00031
1 O 4f-1         0.00007   0.00014  -0.00010  -0.00033   0.00017
1 O 4f+0         0.00040  -0.00003  -0.00008   0.00009  -0.00009
1 O 4f+1        -0.00010   0.00013   0.00001   0.00003   0.00025
1 O 4f+2         0.00014  -0.00010  -0.00008  -0.00014  -0.00025
1 O 4f+3        -0.00006   0.00006   0.00009   0.00023   0.00013
2 C 1s          -0.00026   0.00018   0.00021   0.00042   0.00062
2 C 2s          -0.00604   0.00143   0.00300   0.00498   0.00826
2 C 3s          -0.00887  -0.00103   0.00302   0.00789   0.00368
2 C 2px         -0.01694  -0.00106   0.00524  -0.00305   0.00624
2 C 2py          0.00307  -0.00434  -0.00073  -0.00435  -0.01237
2 C 2pz         -0.00532  -0.00193  -0.00023  -0.00966  -0.00536
2 C 3px         -0.01325   0.00002   0.00124  -0.00449   0.00331
2 C 3py         -0.00038  -0.00391   0.00415  -0.00148  -0.00657
2 C 3pz         -0.00495  -0.00170   0.00261  -0.00522  -0.00328
2 C 3dxy         0.00216   0.00018  -0.00053   0.00115  -0.00064
2 C 3dyz         0.00083  -0.00020   0.00022   0.00139  -0.00010
2 C 3dz^2        0.00092  -0.00124   0.00101   0.00118  -0.00236
2 C 3dxz        -0.00031   0.00104  -0.00086  -0.00037   0.00203
2 C 3dx2-y2     -0.00064  -0.00205   0.00196   0.00051  -0.00326
3 H 1s           0.00135  -0.00451   0.00345   0.00261  -0.00916
3 H 2s           0.00131  -0.00506   0.00372   0.00356  -0.01120
3 H 2px         -0.00050   0.00001   0.00012   0.00003   0.00026
3 H 2py          0.00000  -0.00013  -0.00010  -0.00007  -0.00033
3 H 2pz         -0.00000  -0.00011  -0.00005  -0.00026  -0.00025
4 O 1s           0.00022   0.00009   0.00003  -0.00006  -0.00004
4 O 2s          -0.00053  -0.00714   0.00053  -0.00956  -0.02768
4 O 3s          -0.00028  -0.00207   0.00009  -0.00261  -0.00774
4 O 4s          -0.00316  -0.01130   0.00029  -0.01442  -0.04081
4 O 2px          0.00043  -0.00873  -0.00797   0.00536  -0.00355
4 O 2py          0.00061   0.00083  -0.00808   0.01737   0.02900
4 O 2pz         -0.00004  -0.00103   0.00456  -0.00710  -0.02070
4 O 3px          0.00062  -0.01072  -0.01002   0.00685  -0.00361
4 O 3py          0.00049   0.00103  -0.01068   0.02264   0.03719
4 O 3pz         -0.00012  -0.00153   0.00595  -0.00963  -0.02715
4 O 4px         -0.00086  -0.00892  -0.00905   0.00829   0.00164
4 O 4py          0.00415   0.00096  -0.00913   0.02075   0.03492
4 O 4pz         -0.00140  -0.00160   0.00496  -0.00795  -0.02731
4 O 3dxy         0.00002  -0.00044  -0.00022  -0.00015  -0.00086
4 O 3dyz        -0.00002  -0.00006   0.00006  -0.00015  -0.00049
4 O 3dz^2        0.00001  -0.00019  -0.00010  -0.00014  -0.00037
4 O 3dxz        -0.00004   0.00023   0.00007  -0.00005   0.00039
4 O 3dx2-y2     -0.00006   0.00021   0.00029  -0.00044  -0.00026
4 O 4dxy        -0.00005  -0.00075  -0.00030  -0.00079  -0.00173
4 O 4dyz         0.00002   0.00027   0.00035  -0.00023  -0.00058
4 O 4dz^2       -0.00016  -0.00047  -0.00007  -0.00023  -0.00069
4 O 4dxz         0.00005   0.00071   0.00000   0.00008   0.00129
4 O 4dx2-y2      0.00004   0.00079   0.00121  -0.00151  -0.00089
4 O 4f-3        -0.00003   0.00019   0.00003   0.00013   0.00040
4 O 4f-2         0.00002  -0.00013  -0.00013   0.00007   0.00017
4 O 4f-1         0.00000  -0.00003   0.00003  -0.00011  -0.00029
4 O 4f+0         0.00001   0.00001   0.00003  -0.00005   0.00000
4 O 4f+1        -0.00001   0.00019   0.00008  -0.00002   0.00011
4 O 4f+2         0.00002  -0.00004   0.00008  -0.00015  -0.00038
4 O 4f+3         0.00004  -0.00015  -0.00025   0.00026   0.00025
5 O 1s          -0.00012   0.00022   0.00012  -0.00010  -0.00012
5 O 2s           0.00062   0.00091  -0.00076   0.00137   0.00217
5 O 3s           0.00023   0.00019  -0.00024   0.00041   0.00068
5 O 4s           0.00385  -0.00025  -0.00146   0.00383   0.00087
5 O 2px          0.00010  -0.00028  -0.00182   0.00123   0.00212
5 O 2py         -0.00134   0.00078   0.00137  -0.00053   0.00189
5 O 2pz          0.00070   0.00171   0.00163  -0.00278  -0.00269
5 O 3px          0.00031  -0.00028  -0.00209   0.00114   0.00231
5 O 3py         -0.00169   0.00094   0.00179  -0.00125   0.00184
5 O 3pz          0.00060   0.00211   0.00188  -0.00314  -0.00289
5 O 4px          0.00047  -0.00026  -0.00346   0.00262   0.00241
5 O 4py         -0.00213   0.00117   0.00140   0.00047   0.00391
5 O 4pz          0.00227   0.00301   0.00267  -0.00421  -0.00441
5 O 3dxy        -0.00000  -0.00002  -0.00005   0.00002   0.00001
5 O 3dyz         0.00002   0.00005  -0.00001   0.00002   0.00007
5 O 3dz^2       -0.00002  -0.00003  -0.00001  -0.00002   0.00001
5 O 3dxz         0.00001  -0.00001   0.00001   0.00006   0.00002
5 O 3dx2-y2      0.00000   0.00005   0.00001  -0.00003   0.00002
5 O 4dxy         0.00002  -0.00004   0.00016  -0.00010  -0.00051
5 O 4dyz         0.00016   0.00025   0.00005   0.00017   0.00053
5 O 4dz^2        0.00005   0.00009   0.00008  -0.00032  -0.00031
5 O 4dxz         0.00001   0.00007   0.00006  -0.00004   0.00017
5 O 4dx2-y2      0.00029   0.00022  -0.00015   0.00033   0.00051
5 O 4f-3        -0.00002  -0.00002  -0.00000  -0.00003  -0.00008
5 O 4f-2         0.00002   0.00006   0.00001   0.00001   0.00008
5 O 4f-1        -0.00000  -0.00002  -0.00000   0.00001  -0.00001
5 O 4f+0         0.00001   0.00000  -0.00003   0.00004   0.00004
5 O 4f+1        -0.00001  -0.00004   0.00001  -0.00004  -0.00008
5 O 4f+2         0.00001   0.00002   0.00006  -0.00003  -0.00005
5 O 4f+3         0.00002   0.00003  -0.00004   0.00005   0.00012
6 C 1s           0.00008   0.00040  -0.00017  -0.00010   0.00047
6 C 2s           0.00003   0.00569   0.00201   0.00080   0.00903
6 C 3s          -0.00350   0.00240   0.00540  -0.00048   0.00637
6 C 2px          0.00050   0.00640   0.00181   0.00578   0.01605
6 C 2py          0.00046  -0.00753  -0.00391   0.00131  -0.01137
6 C 2pz          0.00020   0.00043  -0.00107   0.00414   0.00230
6 C 3px         -0.00105   0.00029  -0.00274   0.00446   0.00537
6 C 3py          0.00245  -0.00215  -0.00246  -0.00208  -0.00992
6 C 3pz         -0.00075   0.00005   0.00054   0.00327   0.00525
6 C 3dxy         0.00034  -0.00098  -0.00113   0.00104  -0.00029
6 C 3dyz        -0.00012   0.00058  -0.00047   0.00062   0.00259
6 C 3dz^2        0.00020  -0.00026   0.00012  -0.00071  -0.00160
6 C 3dxz         0.00016  -0.00006   0.00066  -0.00085  -0.00253
6 C 3dx2-y2     -0.00021  -0.00003  -0.00168   0.00287   0.00512
7 H 1s           0.00030  -0.00151   0.00240  -0.00629  -0.01378
7 H 2s          -0.00125  -0.00047   0.00363  -0.00471  -0.00941
7 H 2px          0.00011   0.00018   0.00015   0.00004   0.00029
7 H 2py          0.00003  -0.00018  -0.00005   0.00019  -0.00009
7 H 2pz         -0.00005  -0.00001  -0.00005   0.00002  -0.00005
8 O 1s          -0.00007  -0.00037  -0.00009  -0.00019  -0.00001
8 O 2s          -0.00877  -0.00723  -0.01599   0.00144   0.02305
8 O 3s          -0.00265  -0.00189  -0.00468   0.00047   0.00670
8 O 4s          -0.02116  -0.01031  -0.02627   0.00196   0.03660
8 O 2px          0.00511   0.00657   0.00914   0.00637  -0.01011
8 O 2py          0.00899  -0.01132   0.00409  -0.00166   0.01694
8 O 2pz         -0.00532   0.00913   0.00748  -0.00868  -0.01269
8 O 3px          0.00600   0.00879   0.01146   0.00767  -0.01361
8 O 3py          0.01027  -0.01473   0.00418  -0.00191   0.02272
8 O 3pz         -0.00592   0.01227   0.00989  -0.01120  -0.01725
8 O 4px          0.00479   0.00820   0.01077   0.00681  -0.01404
8 O 4py          0.01310  -0.01590   0.00333  -0.00349   0.02403
8 O 4pz         -0.01096   0.01053   0.01048  -0.01297  -0.01775
8 O 3dxy         0.00031  -0.00058   0.00025  -0.00025   0.00050
8 O 3dyz         0.00043  -0.00029   0.00009  -0.00005   0.00035
8 O 3dz^2       -0.00048  -0.00002  -0.00015  -0.00065   0.00005
8 O 3dxz         0.00047   0.00022   0.00071  -0.00046  -0.00072
8 O 3dx2-y2      0.00097   0.00019   0.00074   0.00033  -0.00037
8 O 4dxy         0.00040  -0.00189   0.00071  -0.00076   0.00244
8 O 4dyz         0.00191  -0.00111   0.00037  -0.00011   0.00079
8 O 4dz^2       -0.00094   0.00011  -0.00008  -0.00266  -0.00020
8 O 4dxz         0.00102   0.00057   0.00184  -0.00205  -0.00249
8 O 4dx2-y2      0.00253   0.00074   0.00197   0.00104  -0.00141
8 O 4f-3         0.00054   0.00008   0.00028   0.00020   0.00005
8 O 4f-2         0.00010   0.00025   0.00028  -0.00016  -0.00043
8 O 4f-1        -0.00028   0.00015   0.00009  -0.00034  -0.00024
8 O 4f+0        -0.00001   0.00006  -0.00003   0.00023  -0.00013
8 O 4f+1        -0.00026  -0.00001  -0.00015   0.00006   0.00002
8 O 4f+2        -0.00053   0.00019  -0.00005  -0.00010  -0.00022
8 O 4f+3        -0.00015   0.00033  -0.00004   0.00015  -0.00055
9 O 1s          -0.00012   0.00022  -0.00012  -0.00010   0.00012
9 O 2s           0.00062   0.00091   0.00076   0.00137  -0.00217
9 O 3s           0.00023   0.00019   0.00024   0.00041  -0.00068
9 O 4s           0.00385  -0.00025   0.00146   0.00383  -0.00087
9 O 2px         -0.00014  -0.00071   0.00214   0.00191  -0.00285
9 O 2py         -0.00109   0.00121  -0.00169  -0.00122  -0.00117
9 O 2pz         -0.00104  -0.00129   0.00063   0.00208  -0.00242
9 O 3px          0.00007  -0.00080   0.00245   0.00191  -0.00308
9 O 3py         -0.00145   0.00147  -0.00215  -0.00201  -0.00107
9 O 3pz         -0.00110  -0.00161   0.00068   0.00224  -0.00254
9 O 4px         -0.00024  -0.00103   0.00400   0.00368  -0.00367
9 O 4py         -0.00141   0.00193  -0.00194  -0.00060  -0.00265
9 O 4pz         -0.00280  -0.00238   0.00114   0.00330  -0.00448
9 O 3dxy        -0.00000  -0.00003   0.00004   0.00003   0.00001
9 O 3dyz        -0.00001  -0.00003  -0.00002  -0.00001   0.00008
9 O 3dz^2       -0.00001  -0.00004  -0.00001  -0.00001   0.00001
9 O 3dxz        -0.00002  -0.00003   0.00002  -0.00004   0.00002
9 O 3dx2-y2     -0.00001   0.00003  -0.00001  -0.00005   0.00001
9 O 4dxy        -0.00002  -0.00009  -0.00014  -0.00010   0.00052
9 O 4dyz        -0.00024  -0.00030   0.00008  -0.00006   0.00032
9 O 4dz^2       -0.00003  -0.00001  -0.00005  -0.00033   0.00033
9 O 4dxz        -0.00008  -0.00011  -0.00006  -0.00024   0.00060
9 O 4dx2-y2      0.00022   0.00012   0.00017   0.00027  -0.00028
9 O 4f-3        -0.00002  -0.00002  -0.00001  -0.00003   0.00010
9 O 4f-2        -0.00000  -0.00004   0.00000   0.00001   0.00004
9 O 4f-1         0.00002   0.00001  -0.00001   0.00002  -0.00003
9 O 4f+0         0.00000   0.00002  -0.00001   0.00000  -0.00004
9 O 4f+1        -0.00001  -0.00004  -0.00004  -0.00005   0.00011
9 O 4f+2        -0.00003  -0.00005   0.00003  -0.00002   0.00006
9 O 4f+3         0.00001  -0.00000   0.00005   0.00005  -0.00010
10 O 1s          0.00022   0.00009  -0.00003  -0.00006   0.00004
10 O 2s         -0.00053  -0.00714  -0.00053  -0.00956   0.02768
10 O 3s         -0.00028  -0.00207  -0.00009  -0.00261   0.00774
10 O 4s         -0.00316  -0.01130  -0.00030  -0.01442   0.04081
10 O 2px         0.00045  -0.00808   0.00922   0.00776  -0.00336
10 O 2py         0.00059   0.00018   0.00684   0.01497  -0.02209
10 O 2pz         0.00009   0.00356   0.00424   0.00983  -0.02798
10 O 3px         0.00065  -0.00985   0.01167   0.01008  -0.00537
10 O 3py         0.00046   0.00016   0.00903   0.01940  -0.02821
10 O 3pz         0.00007   0.00461   0.00567   0.01320  -0.03617
10 O 4px        -0.00028  -0.00810   0.01041   0.01094  -0.01038
10 O 4py         0.00357   0.00015   0.00777   0.01810  -0.02618
10 O 4pz         0.00265   0.00417   0.00460   0.01073  -0.03427
10 O 3dxy        0.00001  -0.00031   0.00019  -0.00010   0.00053
10 O 3dyz        0.00003   0.00016   0.00004   0.00034  -0.00080
10 O 3dz^2      -0.00000   0.00003   0.00005  -0.00005  -0.00021
10 O 3dxz        0.00006  -0.00043   0.00024   0.00008   0.00057
10 O 3dx2-y2    -0.00004   0.00015  -0.00023  -0.00035   0.00022
10 O 4dxy       -0.00002  -0.00052   0.00035  -0.00062   0.00104
10 O 4dyz        0.00005  -0.00012   0.00051   0.00089  -0.00131
10 O 4dz^2      -0.00010  -0.00008   0.00016   0.00005  -0.00050
10 O 4dxz       -0.00013  -0.00121   0.00047   0.00007   0.00148
10 O 4dx2-y2     0.00002   0.00046  -0.00102  -0.00135   0.00101
10 O 4f-3       -0.00002   0.00017  -0.00008   0.00005  -0.00017
10 O 4f-2       -0.00001   0.00001  -0.00015  -0.00022   0.00045
10 O 4f-1        0.00003  -0.00006  -0.00000  -0.00010   0.00021
10 O 4f+0        0.00001  -0.00016   0.00009   0.00001   0.00015
10 O 4f+1       -0.00000   0.00010  -0.00011  -0.00010   0.00025
10 O 4f+2       -0.00004   0.00019  -0.00007   0.00001  -0.00024
10 O 4f+3        0.00003  -0.00008   0.00020   0.00024  -0.00024
11 C 1s          0.00008   0.00040   0.00017  -0.00010  -0.00047
11 C 2s          0.00003   0.00569  -0.00201   0.00080  -0.00903
11 C 3s         -0.00350   0.00240  -0.00540  -0.00048  -0.00637
11 C 2px         0.00045   0.00574  -0.00188   0.00448  -0.01436
11 C 2py         0.00052  -0.00687   0.00398   0.00261   0.00968
11 C 2pz        -0.00020  -0.00420   0.00057  -0.00504   0.00960
11 C 3px        -0.00071   0.00018   0.00288   0.00331  -0.00334
11 C 3py         0.00211  -0.00204   0.00233  -0.00094   0.00789
11 C 3pz         0.00165  -0.00071   0.00042  -0.00480   0.00902
11 C 3dxy        0.00036  -0.00104   0.00077   0.00069   0.00135
11 C 3dyz       -0.00003  -0.00010  -0.00100  -0.00115   0.00246
11 C 3dz^2       0.00023  -0.00035  -0.00073  -0.00133   0.00343
11 C 3dxz        0.00011  -0.00037   0.00026  -0.00021   0.00040
11 C 3dx2-y2    -0.00021  -0.00017   0.00160   0.00272  -0.00471
12 H 1s          0.00030  -0.00151  -0.00240  -0.00629   0.01378
12 H 2s         -0.00125  -0.00047  -0.00363  -0.00471   0.00941
12 H 2px         0.00012   0.00017  -0.00015   0.00003  -0.00029
12 H 2py         0.00002  -0.00017   0.00006   0.00019   0.00009
12 H 2pz         0.00002  -0.00009   0.00001   0.00002   0.00006
13 O 1s          0.00030   0.00008  -0.00020   0.00018   0.00007
13 O 2s          0.00689  -0.00850  -0.00271  -0.00146   0.02335
13 O 3s          0.00194  -0.00246  -0.00064  -0.00052   0.00676
13 O 4s          0.01116  -0.01700  -0.00179  -0.00534   0.04044
13 O 2px        -0.00397  -0.01064  -0.00947  -0.00014   0.01897
13 O 2py        -0.00852  -0.00211  -0.00710   0.00422  -0.00347
13 O 2pz         0.00395  -0.00658  -0.00559   0.01176   0.01342
13 O 3px        -0.00438  -0.01399  -0.01228  -0.00016   0.02450
13 O 3py        -0.00969  -0.00266  -0.00862   0.00525  -0.00333
13 O 3pz         0.00486  -0.00875  -0.00717   0.01461   0.01772
13 O 4px        -0.00921  -0.01548  -0.01100   0.00091   0.02684
13 O 4py        -0.01393  -0.00435  -0.01056   0.00248  -0.00299
13 O 4pz         0.00619  -0.01005  -0.00694   0.01641   0.02023
13 O 3dxy        0.00052  -0.00017   0.00026  -0.00042   0.00075
13 O 3dyz        0.00078  -0.00007   0.00010   0.00017   0.00038
13 O 3dz^2      -0.00016  -0.00001   0.00010  -0.00051   0.00028
13 O 3dxz       -0.00029   0.00034   0.00016  -0.00035  -0.00064
13 O 3dx2-y2     0.00070   0.00043   0.00041   0.00006  -0.00037
13 O 4dxy        0.00117  -0.00049   0.00086  -0.00095   0.00174
13 O 4dyz        0.00252  -0.00019   0.00011   0.00049   0.00103
13 O 4dz^2      -0.00131  -0.00002   0.00005  -0.00157   0.00074
13 O 4dxz       -0.00094   0.00067   0.00051  -0.00150  -0.00124
13 O 4dx2-y2     0.00280   0.00136   0.00150   0.00054  -0.00097
13 O 4f-3        0.00032   0.00012   0.00032  -0.00005  -0.00012
13 O 4f-2        0.00020   0.00005   0.00016  -0.00026  -0.00009
13 O 4f-1        0.00024   0.00001   0.00005  -0.00014   0.00008
13 O 4f+0       -0.00016  -0.00002  -0.00003  -0.00021   0.00007
13 O 4f+1       -0.00020   0.00012   0.00004  -0.00020  -0.00022
13 O 4f+2       -0.00002   0.00020   0.00009  -0.00008  -0.00035
13 O 4f+3       -0.00003   0.00015  -0.00002   0.00017  -0.00031
14 O 1s         -0.00012  -0.00019  -0.00013   0.00032   0.00025
14 O 2s          0.00161   0.00122   0.00068   0.00169  -0.00119
14 O 3s          0.00057   0.00044   0.00028   0.00040  -0.00044
14 O 4s          0.00481   0.00417   0.00120  -0.00279  -0.00421
14 O 2px         0.00401  -0.00007  -0.00056   0.00598   0.00104
14 O 2py         0.00122  -0.00108  -0.00137   0.00109   0.00145
14 O 2pz        -0.00316  -0.00146  -0.00207   0.00091   0.00154
14 O 3px         0.00471   0.00016  -0.00078   0.00716   0.00090
14 O 3py         0.00137  -0.00110  -0.00132   0.00103   0.00161
14 O 3pz        -0.00405  -0.00165  -0.00218   0.00101   0.00165
14 O 4px         0.00651  -0.00065  -0.00106   0.00726   0.00254
14 O 4py         0.00139  -0.00278  -0.00315   0.00261   0.00276
14 O 4pz        -0.00583  -0.00274  -0.00495   0.00045   0.00308
14 O 3dxy        0.00009   0.00002   0.00004   0.00002  -0.00000
14 O 3dyz       -0.00008  -0.00004  -0.00003  -0.00000   0.00003
14 O 3dz^2      -0.00008   0.00001   0.00001  -0.00008  -0.00001
14 O 3dxz        0.00003  -0.00001   0.00002  -0.00003   0.00006
14 O 3dx2-y2     0.00003   0.00001   0.00004  -0.00008   0.00000
14 O 4dxy        0.00027  -0.00019   0.00007  -0.00010   0.00033
14 O 4dyz       -0.00006  -0.00006   0.00003  -0.00008   0.00013
14 O 4dz^2      -0.00014  -0.00021  -0.00010  -0.00004   0.00022
14 O 4dxz       -0.00010  -0.00014  -0.00010  -0.00039   0.00033
14 O 4dx2-y2    -0.00023  -0.00009  -0.00010  -0.00031   0.00033
14 O 4f-3        0.00002   0.00003   0.00003   0.00005  -0.00008
14 O 4f-2       -0.00004   0.00001  -0.00003   0.00010  -0.00006
14 O 4f-1        0.00001   0.00002   0.00001   0.00006  -0.00005
14 O 4f+0        0.00001   0.00001   0.00004  -0.00001  -0.00001
14 O 4f+1       -0.00003  -0.00000  -0.00002   0.00002  -0.00001
14 O 4f+2       -0.00002   0.00003   0.00003  -0.00005  -0.00004
14 O 4f+3        0.00002  -0.00000   0.00002  -0.00005   0.00005
15 C 1s         -0.00026   0.00018  -0.00021   0.00042  -0.00062
15 C 2s         -0.00604   0.00143  -0.00300   0.00499  -0.00826
15 C 3s         -0.00887  -0.00103  -0.00302   0.00790  -0.00368
15 C 2px        -0.01472  -0.00066  -0.00507  -0.00046  -0.00698
15 C 2py         0.00085  -0.00473   0.00056  -0.00693   0.01312
15 C 2pz         0.01036   0.00088   0.00142   0.00856   0.00013
15 C 3px        -0.01140   0.00033  -0.00064  -0.00295  -0.00382
15 C 3py        -0.00223  -0.00422  -0.00475  -0.00302   0.00708
15 C 3pz         0.00808   0.00049   0.00162   0.00564  -0.00033
15 C 3dxy        0.00159   0.00064   0.00089   0.00047  -0.00024
15 C 3dyz       -0.00141   0.00110   0.00092  -0.00203  -0.00193
15 C 3dz^2      -0.00006  -0.00044  -0.00039   0.00000   0.00082
15 C 3dxz        0.00128  -0.00076  -0.00045   0.00081   0.00194
15 C 3dx2-y2    -0.00073  -0.00212  -0.00198   0.00019   0.00353
16 H 1s          0.00135  -0.00451  -0.00345   0.00261   0.00916
16 H 2s          0.00131  -0.00506  -0.00372   0.00356   0.01120
16 H 2px        -0.00048   0.00004  -0.00012   0.00010  -0.00031
16 H 2py        -0.00002  -0.00016   0.00011  -0.00013   0.00038
16 H 2pz         0.00014   0.00006   0.00001   0.00021  -0.00007
17 Fe 1s         0.00005  -0.00014   0.00000   0.00066  -0.00000
17 Fe 2s         0.00020  -0.00041   0.00000   0.00196  -0.00000
17 Fe 3s        -0.03039  -0.00116   0.00000   0.00910  -0.00000
17 Fe 4s        -0.02082  -0.04244   0.00001   0.03180   0.00000
17 Fe 5s        -0.01003  -0.00514  -0.00000  -0.00470   0.00000
17 Fe 6s         0.00436   0.00030   0.00000   0.00430  -0.00000
17 Fe 7s        -0.03699  -0.00503  -0.00000  -0.02538  -0.00000
17 Fe 2px       -0.00096  -0.00022   0.00002  -0.00003  -0.00000
17 Fe 2py        0.00022  -0.00059  -0.00002   0.00035   0.00000
17 Fe 2pz        0.00017  -0.00005   0.00012   0.00005  -0.00002
17 Fe 3px       -0.02687  -0.00591   0.00030  -0.00058  -0.00008
17 Fe 3py       -0.00138  -0.01629  -0.00030   0.00453   0.00008
17 Fe 3pz        0.00362  -0.00147   0.00211   0.00072  -0.00060
17 Fe 4px       -0.09682  -0.02936   0.00048   0.00079   0.00048
17 Fe 4py        0.06820  -0.01288  -0.00046   0.07231  -0.00048
17 Fe 4pz        0.02340   0.00234   0.00333   0.01014   0.00337
17 Fe 5px        0.06172   0.03501  -0.00061  -0.00162  -0.00001
17 Fe 5py       -0.06224   0.05776   0.00060  -0.06297   0.00001
17 Fe 5pz       -0.01758   0.00323  -0.00430  -0.00870  -0.00006
17 Fe 6px       -0.00014   0.00022   0.00005  -0.00060   0.00004
17 Fe 6py        0.00249   0.00308  -0.00005   0.00170  -0.00004
17 Fe 6pz        0.00037   0.00041   0.00033   0.00033   0.00025
17 Fe 7px       -0.03373  -0.00196  -0.00116   0.00026  -0.00069
17 Fe 7py       -0.00828  -0.00851   0.00116  -0.01058   0.00069
17 Fe 7pz        0.00361  -0.00093  -0.00820  -0.00154  -0.00487
17 Fe 3dxy      -0.69073  -0.25532  -0.09490   0.38345   0.08630
17 Fe 3dyz       0.07220  -0.12382  -0.64785  -0.15584  -0.02602
17 Fe 3dz^2      0.42595   0.34553  -0.16442   0.46711   0.14948
17 Fe 3dxz       0.08609  -0.02238  -0.00516   0.19647  -0.61005
17 Fe 3dx2-y2   -0.55806   0.51540  -0.09265  -0.14292  -0.09020
17 Fe 4dxy      -0.01020   0.00868   0.00470  -0.01266  -0.00559
17 Fe 4dyz       0.00067   0.00537   0.02559   0.00590  -0.00558
17 Fe 4dz^2      0.00778  -0.01555   0.00815  -0.01765  -0.00968
17 Fe 4dxz       0.00164  -0.00002  -0.00626  -0.00687   0.03225
17 Fe 4dx2-y2   -0.00817  -0.01887   0.00274   0.00340   0.00378
17 Fe 5dxy      -0.00655   0.00105   0.00087  -0.00198  -0.00102
17 Fe 5dyz       0.00052   0.00102   0.00458   0.00105  -0.00145
17 Fe 5dz^2      0.00469  -0.00289   0.00151  -0.00309  -0.00177
17 Fe 5dxz       0.00098  -0.00015  -0.00133  -0.00111   0.00547
17 Fe 5dx2-y2   -0.00529  -0.00307   0.00046   0.00020   0.00057
17 Fe 6dxy      -0.05459  -0.01075  -0.00093   0.01298   0.00008
17 Fe 6dyz       0.00719  -0.00429  -0.01655  -0.00284  -0.00651
17 Fe 6dz^2      0.02579   0.01381  -0.00161   0.00986   0.00013
17 Fe 6dxz       0.00426  -0.00039  -0.01024   0.00605  -0.00703
17 Fe 6dx2-y2   -0.04036   0.01649  -0.00380  -0.01131  -0.00192
17 Fe 4f-3       0.00024  -0.00005   0.00002   0.00009   0.00003
17 Fe 4f-2       0.00002  -0.00001  -0.00002  -0.00006   0.00020
17 Fe 4f-1      -0.00010  -0.00022   0.00006  -0.00016  -0.00005
17 Fe 4f+0       0.00001  -0.00005  -0.00006  -0.00006  -0.00000
17 Fe 4f+1      -0.00012  -0.00008   0.00001  -0.00002   0.00005
17 Fe 4f+2       0.00006  -0.00006  -0.00015  -0.00004   0.00001
17 Fe 4f+3      -0.00035  -0.00011  -0.00003   0.00006   0.00004
17 Fe 5f-3       0.00067  -0.00243   0.00036   0.00065   0.00016
17 Fe 5f-2       0.00037   0.00035   0.00066  -0.00025   0.00008
17 Fe 5f-1      -0.00025  -0.00197   0.00055  -0.00047   0.00006
17 Fe 5f+0       0.00003  -0.00047  -0.00103  -0.00021   0.00024
17 Fe 5f+1      -0.00028  -0.00066   0.00010   0.00006   0.00029
17 Fe 5f+2       0.00048  -0.00081  -0.00140   0.00002  -0.00076
17 Fe 5f+3      -0.00268  -0.00133  -0.00014   0.00001  -0.00012
17 Fe 5g-4       0.00136  -0.00010   0.00019   0.00010   0.00008
17 Fe 5g-3      -0.00028   0.00010   0.00083  -0.00001   0.00108
17 Fe 5g-2      -0.00079  -0.00066  -0.00027   0.00015  -0.00013
17 Fe 5g-1       0.00013  -0.00017  -0.00069  -0.00013  -0.00055
17 Fe 5g+0       0.00072   0.00052  -0.00009   0.00049   0.00048
17 Fe 5g+1       0.00031  -0.00006  -0.00057   0.00050  -0.00152
17 Fe 5g+2      -0.00072   0.00035  -0.00014  -0.00056  -0.00054
17 Fe 5g+3      -0.00013   0.00027  -0.00012  -0.00030   0.00057
17 Fe 5g+4      -0.00005  -0.00172   0.00015   0.00101   0.00034
18 O 1s         -0.00007  -0.00037   0.00009  -0.00019   0.00001
18 O 2s         -0.00877  -0.00723   0.01599   0.00144  -0.02305
18 O 3s         -0.00265  -0.00189   0.00468   0.00047  -0.00670
18 O 4s         -0.02116  -0.01031   0.02627   0.00196  -0.03660
18 O 2px         0.00671   0.00339  -0.00690   0.00843   0.00560
18 O 2py         0.00739  -0.00814  -0.00632  -0.00371  -0.01243
18 O 2pz         0.00597  -0.01330   0.00828   0.00582  -0.01908
18 O 3px         0.00778   0.00453  -0.00848   0.01035   0.00750
18 O 3py         0.00849  -0.01048  -0.00716  -0.00459  -0.01661
18 O 3pz         0.00663  -0.01773   0.01111   0.00772  -0.02582
18 O 4px         0.00810   0.00440  -0.00762   0.00995   0.00773
18 O 4py         0.00980  -0.01210  -0.00648  -0.00662  -0.01772
18 O 4pz         0.01238  -0.01629   0.01171   0.00916  -0.02676
18 O 3dxy        0.00036  -0.00041  -0.00041  -0.00025  -0.00018
18 O 3dyz       -0.00053   0.00031   0.00035   0.00035   0.00025
18 O 3dz^2      -0.00039   0.00028  -0.00012  -0.00065   0.00049
18 O 3dxz       -0.00082  -0.00035   0.00079  -0.00006  -0.00080
18 O 3dx2-y2     0.00065   0.00020  -0.00046   0.00045   0.00024
18 O 4dxy        0.00027  -0.00135  -0.00104  -0.00085  -0.00146
18 O 4dyz       -0.00205   0.00106   0.00119   0.00138   0.00051
18 O 4dz^2      -0.00117   0.00106  -0.00048  -0.00282   0.00190
18 O 4dxz       -0.00204  -0.00098   0.00193   0.00005  -0.00284
18 O 4dx2-y2     0.00154   0.00083  -0.00121   0.00155   0.00083
18 O 4f-3        0.00032   0.00005  -0.00017   0.00020  -0.00010
18 O 4f-2       -0.00020  -0.00023   0.00021  -0.00006  -0.00034
18 O 4f-1       -0.00043   0.00032  -0.00008  -0.00015   0.00052
18 O 4f+0        0.00003   0.00013  -0.00023  -0.00038   0.00020
18 O 4f+1       -0.00053  -0.00002   0.00021  -0.00017  -0.00009
18 O 4f+2        0.00036  -0.00015  -0.00011  -0.00002  -0.00025
18 O 4f+3       -0.00004   0.00018   0.00010   0.00017   0.00033
19 Fe 1s         0.00009   0.00017  -0.00000  -0.00086   0.00000
19 Fe 2s         0.00027   0.00051  -0.00000  -0.00256   0.00000
19 Fe 3s         0.00163   0.00118  -0.00000  -0.01300   0.00000
19 Fe 4s         0.01790   0.01526  -0.00001  -0.04511  -0.00000
19 Fe 5s         0.00226   0.00315  -0.00000   0.00012  -0.00000
19 Fe 6s         0.00106   0.00148  -0.00000  -0.00164   0.00000
19 Fe 7s         0.03500  -0.00233   0.00000   0.01226   0.00000
19 Fe 2px        0.00003   0.00018  -0.00002   0.00138   0.00001
19 Fe 2py        0.00008   0.00003   0.00002   0.00027  -0.00001
19 Fe 2pz        0.00001  -0.00002  -0.00012  -0.00016   0.00010
19 Fe 3px       -0.00006   0.00640  -0.00002   0.03407   0.00052
19 Fe 3py       -0.00000  -0.00055   0.00003   0.00665  -0.00052
19 Fe 3pz        0.00001  -0.00099  -0.00019  -0.00389   0.00369
19 Fe 4px       -0.03617   0.00806  -0.00081   0.12242   0.00053
19 Fe 4py        0.02616  -0.01692   0.00083   0.03840  -0.00053
19 Fe 4pz        0.00884  -0.00354  -0.00582  -0.01192   0.00374
19 Fe 5px        0.02881  -0.01871   0.00024  -0.15289  -0.00185
19 Fe 5py       -0.01270   0.00587  -0.00026  -0.04050   0.00185
19 Fe 5pz       -0.00589   0.00348   0.00181   0.01594  -0.01305
19 Fe 6px       -0.00166  -0.00182  -0.00020  -0.00583  -0.00015
19 Fe 6py       -0.00055   0.00150   0.00020  -0.00107   0.00015
19 Fe 6pz        0.00016   0.00047  -0.00139   0.00068  -0.00105
19 Fe 7px       -0.01136   0.00282   0.00084   0.00190   0.00055
19 Fe 7py       -0.01559  -0.00530  -0.00084  -0.00102  -0.00055
19 Fe 7pz       -0.00060  -0.00115   0.00595  -0.00042   0.00388
19 Fe 3dxy      -0.00207   0.56564   0.09274  -0.34082  -0.10085
19 Fe 3dyz      -0.00350  -0.04640  -0.03894  -0.01963  -0.69571
19 Fe 3dz^2     -0.00749   0.06325   0.16078   0.47327  -0.17466
19 Fe 3dxz      -0.00794   0.15311  -0.66692   0.12198  -0.01316
19 Fe 3dx2-y2    0.04035  -0.37627  -0.10014  -0.36050  -0.10052
19 Fe 4dxy      -0.00279  -0.05869  -0.01130   0.04048   0.01481
19 Fe 4dyz      -0.00019   0.00496  -0.00142   0.00185   0.09544
19 Fe 4dz^2      0.00239  -0.00848  -0.01959  -0.05628   0.02565
19 Fe 4dxz       0.00021  -0.01672   0.07508  -0.01500  -0.00480
19 Fe 4dx2-y2   -0.00006   0.04148   0.01045   0.04630   0.01285
19 Fe 5dxy      -0.00095  -0.01192  -0.00223   0.00779   0.00295
19 Fe 5dyz      -0.00008   0.00099  -0.00023   0.00041   0.01899
19 Fe 5dz^2      0.00091  -0.00152  -0.00386  -0.01075   0.00511
19 Fe 5dxz       0.00010  -0.00331   0.01486  -0.00280  -0.00099
19 Fe 5dx2-y2   -0.00006   0.00819   0.00208   0.00842   0.00255
19 Fe 6dxy      -0.00199   0.00771   0.00121  -0.00516   0.00206
19 Fe 6dyz      -0.00065  -0.00093   0.00102  -0.00113   0.00930
19 Fe 6dz^2      0.00216   0.00182   0.00210   0.01044   0.00356
19 Fe 6dxz      -0.00013   0.00228  -0.00718   0.00269  -0.00463
19 Fe 6dx2-y2    0.00273  -0.00478  -0.00087  -0.00548   0.00066
19 Fe 4f-3      -0.00004   0.00019   0.00004  -0.00030  -0.00010
19 Fe 4f-2      -0.00000  -0.00002  -0.00012   0.00002  -0.00042
19 Fe 4f-1      -0.00001  -0.00011   0.00003   0.00012   0.00004
19 Fe 4f+0      -0.00003  -0.00007   0.00020  -0.00011   0.00009
19 Fe 4f+1       0.00006   0.00007   0.00012   0.00041  -0.00010
19 Fe 4f+2       0.00001   0.00009  -0.00033   0.00011   0.00012
19 Fe 4f+3      -0.00006  -0.00036  -0.00008  -0.00021  -0.00005
19 Fe 5f-3      -0.00022   0.00189   0.00019  -0.00387  -0.00022
19 Fe 5f-2       0.00017  -0.00012  -0.00223   0.00063  -0.00124
19 Fe 5f-1      -0.00068  -0.00065   0.00035   0.00162   0.00010
19 Fe 5f+0      -0.00022  -0.00062   0.00246  -0.00099   0.00058
19 Fe 5f+1      -0.00005   0.00100   0.00111   0.00437  -0.00009
19 Fe 5f+2       0.00008   0.00106  -0.00313   0.00133  -0.00001
19 Fe 5f+3      -0.00158  -0.00355  -0.00095  -0.00346  -0.00022
19 Fe 5g-4       0.00010  -0.00011  -0.00001  -0.00001  -0.00013
19 Fe 5g-3      -0.00002   0.00002  -0.00014  -0.00001  -0.00021
19 Fe 5g-2       0.00001  -0.00009   0.00006   0.00018  -0.00002
19 Fe 5g-1       0.00002  -0.00001   0.00001  -0.00014   0.00017
19 Fe 5g+0      -0.00001   0.00006   0.00000   0.00011   0.00006
19 Fe 5g+1       0.00002  -0.00002   0.00002   0.00011   0.00005
19 Fe 5g+2      -0.00006   0.00005  -0.00001   0.00005  -0.00012
19 Fe 5g+3      -0.00001  -0.00000  -0.00007   0.00002   0.00042
19 Fe 5g+4       0.00008  -0.00015  -0.00004   0.00026   0.00004
20 O 1s         -0.00008  -0.00014   0.00003  -0.00004  -0.00033
20 O 2s          0.00084   0.00773  -0.01615  -0.01076   0.02562
20 O 3s          0.00023   0.00229  -0.00462  -0.00290   0.00727
20 O 4s          0.00098   0.01393  -0.02465  -0.01697   0.04135
20 O 2px        -0.00326   0.00984  -0.00583   0.01048  -0.01738
20 O 2py         0.00068  -0.00025  -0.00882  -0.00669   0.01130
20 O 2pz         0.00476   0.00088  -0.01166  -0.01591   0.03173
20 O 3px        -0.00425   0.01217  -0.00638   0.01406  -0.02288
20 O 3py         0.00126  -0.00026  -0.01064  -0.00891   0.01472
20 O 3pz         0.00622   0.00163  -0.01527  -0.02094   0.04195
20 O 4px        -0.00371   0.01121  -0.00656   0.01345  -0.02609
20 O 4py         0.00253  -0.00308  -0.01156  -0.00461   0.00773
20 O 4pz         0.00925  -0.00037  -0.01698  -0.01945   0.03711
20 O 3dxy        0.00016  -0.00043   0.00035  -0.00020  -0.00003
20 O 3dyz        0.00000  -0.00029   0.00066   0.00036  -0.00083
20 O 3dz^2      -0.00023  -0.00004   0.00004  -0.00002  -0.00032
20 O 3dxz        0.00006  -0.00043   0.00030  -0.00021  -0.00000
20 O 3dx2-y2    -0.00007   0.00003  -0.00040  -0.00040   0.00037
20 O 4dxy       -0.00012  -0.00080   0.00088  -0.00104   0.00113
20 O 4dyz       -0.00033  -0.00055   0.00122   0.00096  -0.00229
20 O 4dz^2      -0.00006  -0.00014   0.00000  -0.00001  -0.00110
20 O 4dxz       -0.00006  -0.00114   0.00097  -0.00033  -0.00060
20 O 4dx2-y2     0.00015  -0.00039  -0.00073  -0.00134   0.00114
20 O 4f-3       -0.00000   0.00017  -0.00006   0.00026  -0.00033
20 O 4f-2       -0.00001   0.00008  -0.00024  -0.00020   0.00041
20 O 4f-1        0.00018  -0.00012   0.00014   0.00014  -0.00003
20 O 4f+0        0.00001  -0.00017   0.00023   0.00005  -0.00026
20 O 4f+1        0.00011  -0.00014  -0.00005  -0.00017   0.00048
20 O 4f+2       -0.00013   0.00017  -0.00001   0.00011  -0.00028
20 O 4f+3        0.00005  -0.00008   0.00019   0.00010  -0.00000
21 O 1s         -0.00008  -0.00014  -0.00003  -0.00004   0.00033
21 O 2s          0.00084   0.00773   0.01615  -0.01076  -0.02562
21 O 3s          0.00023   0.00229   0.00461  -0.00291  -0.00727
21 O 4s          0.00098   0.01393   0.02465  -0.01697  -0.04135
21 O 2px        -0.00441   0.00921   0.00277   0.01415   0.02492
21 O 2py         0.00183   0.00038   0.01188  -0.01037  -0.01884
21 O 2pz        -0.00331  -0.00356  -0.00994   0.01000   0.02146
21 O 3px        -0.00573   0.01124   0.00239   0.01888   0.03286
21 O 3py         0.00274   0.00066   0.01463  -0.01374  -0.02471
21 O 3pz        -0.00424  -0.00489  -0.01292   0.01306   0.02846
21 O 4px        -0.00599   0.01076   0.00213   0.01805   0.03490
21 O 4py         0.00481  -0.00263   0.01599  -0.00922  -0.01654
[...]
   8.1: -7.860e-04 -7.969e-04  8.215e-04 -8.554e-04 -8.959e-04
  11.4:  5.888e-04  5.845e-04 -5.745e-04  5.606e-04  5.464e-04
  9.10:  5.020e-04  5.024e-04 -5.032e-04  5.042e-04  5.052e-04
   5.8:  5.017e-04  5.019e-04 -5.030e-04  5.049e-04  5.055e-04
 10.10:  4.169e-04  4.172e-04 -4.179e-04  4.188e-04  4.197e-04
  7.10:  3.923e-04  3.928e-04 -3.939e-04  3.951e-04  3.968e-04
   5.6: -3.432e-04 -3.424e-04  3.411e-04 -3.398e-04 -3.367e-04
  10.8: -1.382e-04 -1.382e-04  1.384e-04 -1.386e-04 -1.389e-04
   6.4:  1.456e-04  1.437e-04 -1.388e-04  1.319e-04  1.236e-04
  1.10: -1.307e-04 -1.296e-04  1.273e-04 -1.242e-04 -1.205e-04
   9.8: -1.079e-04 -1.081e-04  1.084e-04 -1.088e-04 -1.092e-04
   0.4: -1.085e-04 -1.086e-04  1.085e-04 -1.083e-04 -1.083e-04
   7.8: -1.047e-04 -1.049e-04  1.053e-04 -1.058e-04 -1.065e-04
   4.8:  9.772e-05  9.807e-05 -9.864e-05  9.930e-05  1.005e-04
   9.6:  8.879e-05  8.872e-05 -8.857e-05  8.838e-05  8.808e-05
  10.6:  7.313e-05  7.307e-05 -7.293e-05  7.274e-05  7.250e-05
  5.12: -7.146e-05 -7.153e-05  7.200e-05 -7.299e-05 -7.363e-05
   0.1:  7.279e-05  7.263e-05 -7.216e-05  7.151e-05  7.077e-05
   7.6:  6.775e-05  6.776e-05 -6.774e-05  6.769e-05  6.772e-05
Remaining 115 ENVs in rootspace 17 have combined average weight = 9.087169e-09
Leading 10 CSFs of 13 local primitive basis functions for fragment 0 in rootspace 17:
State 0/13               State 1/13               State 2/13               
00000uuuuu :  9.82e-01   0000u0uuuu : -9.09e-01   0000uuuu0u : -8.48e-01   
0000uuuuu0 : -1.14e-01   0000uuu0uu : -3.73e-01   0000uu0uuu : -4.88e-01   
000u00uuuu : -7.49e-02   00u0u00uuu :  9.11e-02   000uu0uu0u : -8.82e-02   
00u00u0uuu : -7.11e-02   0u00u0u0uu :  8.78e-02   00u0uu0u0u : -8.78e-02   
0u000uu0uu : -6.75e-02   u000u0uu0u :  7.35e-02   0u00uuu00u : -8.72e-02   
u0000uuu0u : -5.76e-02   000u00uuuu : -4.79e-02   0u000uuu0u : -6.37e-02   
uu000uu00u : -2.25e-02   00u0uu00uu : -4.05e-02   0u000u0uuu : -6.35e-02   
0uu00u00uu : -2.17e-02   000uu0u0uu : -3.86e-02   00u000uuuu :  5.20e-02   
000uu0uuu0 :  2.10e-02   00u00uuu0u :  3.76e-02   000uu00uuu : -5.06e-02   
0u0u00u0uu : -1.97e-02   00u00u0uuu :  3.63e-02   0u00uu00uu :  4.63e-02   
State 3/13               State 4/13               State 5/13               
0000uu0uuu : -8.49e-01   0000uuu0uu :  9.02e-01   0000uuuuu0 : -9.07e-01   
0000uuuu0u :  4.89e-01   0000u0uuuu : -3.79e-01   000u00uuuu :  2.98e-01   
0u00uu00uu :  8.62e-02   000uu0u0uu :  9.11e-02   00u00u0uuu :  1.83e-01   
000uu00uuu : -8.62e-02   00u0uu00uu :  9.01e-02   0u000uu0uu :  1.12e-01   
000u0u0uuu : -7.61e-02   u000uuu00u : -7.96e-02   0000uuu0uu : -8.62e-02   
u000uu0u0u :  7.02e-02   0000uuuuu0 : -6.93e-02   0u00uuu0u0 : -7.14e-02   
0u000u0uuu : -6.37e-02   000u00uuuu :  6.06e-02   u000uuuu00 : -6.74e-02   
0u00uuu00u :  5.38e-02   0u000uu0uu :  4.37e-02   00u0uu0uu0 : -6.66e-02   
000uu0uu0u :  4.98e-02   0u00u0u0uu :  3.73e-02   00000uuuuu : -5.71e-02   
00u0uu0u0u :  4.31e-02   00u0u00uuu :  3.45e-02   000uu0uuu0 : -5.51e-02   
State 6/13               State 7/13               State 8/13               
000u0uuu0u :  8.02e-01   000u0uu0uu :  6.25e-01   00u00uu0uu :  6.87e-01   
0u000uuu0u : -4.93e-01   000u0uuuu0 : -4.41e-01   00u000uuuu :  6.09e-01   
00u00uu0uu : -1.55e-01   000u00uuuu :  3.72e-01   00u00uuuu0 :  2.04e-01   
00u000uuuu : -1.23e-01   00u00uuu0u : -3.04e-01   000u0uuu0u :  1.90e-01   
00u00uuuu0 :  1.20e-01   0u000uu0uu : -2.86e-01   u0000uu0uu : -1.32e-01   
000u0u0uuu :  1.16e-01   00u00u0uuu : -1.67e-01   000u0u0uuu :  1.11e-01   
000uuuuu00 :  1.14e-01   0u000uuuu0 :  1.36e-01   u00000uuuu : -1.07e-01   
00uu0u0u0u :  7.83e-02   0u0000uuuu : -9.92e-02   00u0uuu0u0 :  9.53e-02   
0u0u0uu00u :  7.73e-02   000uuuu0u0 :  8.72e-02   00u0u0uuu0 :  9.04e-02   
0u00uuuu00 : -7.11e-02   0000uuuuu0 :  7.43e-02   00uu00u0uu : -6.88e-02   
State 9/13               State 10/13              State 11/13              
00u00uuu0u :  5.85e-01   000u0uuuu0 :  5.40e-01   000u0u0uuu :  8.69e-01   
000u0uuuu0 :  4.76e-01   0u000uu0uu : -4.43e-01   0u000uuu0u :  3.02e-01   
000u0uu0uu :  3.97e-01   0u0000uuuu : -4.42e-01   00u00uu0uu : -2.51e-01   
000u00uuuu :  3.39e-01   000u00uuuu :  3.67e-01   0u000u0uuu : -1.65e-01   
00u00u0uuu : -2.69e-01   00u00uuu0u : -2.81e-01   00u000uuuu :  1.29e-01   
0u0000uuuu :  1.82e-01   000u0uu0uu : -2.46e-01   000uuu0uu0 :  1.25e-01   
u0000uuu0u : -9.42e-02   0u00u0uuu0 : -6.61e-02   0u0u0u00uu : -8.35e-02   
00u0uuuu00 :  8.25e-02   000uu0uuu0 :  5.95e-02   u0000uu0uu :  7.63e-02   
0000uuuuu0 :  6.09e-02   0u00uuu0u0 : -5.73e-02   u00u0u0u0u : -6.70e-02   
0uu00uu00u :  5.65e-02   00u00u0uuu :  5.39e-02   0000uu0uuu : -5.18e-02   
State 12/13              
0u000uuu0u : -7.31e-01   
000u0uuu0u : -4.37e-01   
000u0u0uuu :  3.51e-01   
0u000u0uuu :  2.65e-01   
00u00uuuu0 : -1.58e-01   
00u00uu0uu :  1.17e-01   
0u00uuuu00 : -1.04e-01   
0u0u00uu0u :  7.51e-02   
0uu00u0u0u :  6.80e-02   
000uuuuu00 : -6.04e-02   
Leading 10 CSFs of 13 local primitive basis functions for fragment 1 in rootspace 17:
State 0/13               State 1/13               State 2/13               
0000uuuuuu :  9.57e-01   000u0uuuuu :  9.91e-01   00u00uuuuu :  9.59e-01   
00u00uuuuu :  2.49e-01   0u0u0uuu0u : -6.41e-02   0000uuuuuu : -2.50e-01   
000uuu0uuu : -6.19e-02   000uu0uuuu :  6.41e-02   00u0u0uuuu :  6.08e-02   
0u00uuuu0u : -6.18e-02   00uu0uu0uu : -6.18e-02   00uu0u0uuu :  6.01e-02   
00u0uuu0uu : -5.97e-02   u00u0uuuu0 : -5.63e-02   u0u00uuuu0 : -5.96e-02   
0u000uuuuu : -5.94e-02   u0uu0uu0u0 : -2.39e-02   0uu00uuu0u : -5.84e-02   
u000uuuuu0 : -5.41e-02   0u0uu0uu0u :  2.28e-02   0uuu0u0u0u :  2.19e-02   
u0u0uuu0u0 : -2.30e-02   00uuu0u0uu :  2.07e-02   0uu0u0uu0u :  2.18e-02   
0u0uuu0u0u : -2.18e-02   u00uu0uuu0 :  1.95e-02   00uuu00uuu : -2.12e-02   
00uuuu00uu : -1.96e-02   0uuu0uu00u : -1.94e-02   u0uu0u0uu0 :  1.91e-02   
State 3/13               State 4/13               State 5/13               
0u000uuuuu : -9.89e-01   u0000uuuuu :  9.90e-01   00u0uuuuu0 :  9.33e-01   
0u00u0uuuu : -6.59e-02   u0u00uu0uu :  6.86e-02   00uu0uuu0u :  2.97e-01   
0u0u0u0uuu : -6.54e-02   u00u0u0uuu :  6.37e-02   0u00uuuuu0 :  1.30e-01   
0uu00uu0uu : -6.05e-02   u000u0uuuu :  6.36e-02   0uu00uuuu0 :  6.29e-02   
0000uuuuuu : -5.77e-02   uu000uuu0u :  6.08e-02   00uuuu0uu0 : -6.13e-02   
uu000uuuu0 :  5.48e-02   uu00u0uu0u : -2.27e-02   0uu0uuuu00 :  6.05e-02   
uuu00uu0u0 : -2.39e-02   uu0u0u0u0u : -2.25e-02   00u0uu0uuu : -5.92e-02   
0u0uu00uuu :  2.13e-02   u00uu00uuu : -2.14e-02   00uu00uuuu :  5.83e-02   
0uu0u0u0uu :  2.07e-02   u0u0u0u0uu : -2.04e-02   000uuuuu0u : -3.92e-02   
0uuu0u00uu :  2.06e-02   u0uu0u00uu : -2.03e-02   u00u0uuuu0 :  3.21e-02   
State 6/13               State 7/13               State 8/13               
00uu0uuuu0 :  9.43e-01   000uuuuu0u :  9.06e-01   000uuuuuu0 :  7.36e-01   
00u0uuuu0u :  2.66e-01   00uu0uuu0u :  3.32e-01   00u0uuuu0u : -5.56e-01   
00u0u0uuuu :  9.92e-02   000uu0uuuu :  1.68e-01   00uu0u0uuu :  2.11e-01   
0u0u0uuuu0 : -9.56e-02   0u0u0uuu0u :  1.11e-01   0u00uuuu0u : -1.45e-01   
0uu00uuu0u :  7.42e-02   00u0uuuuu0 : -7.20e-02   0u0u0uuuu0 :  1.32e-01   
00uuu0uuu0 :  6.26e-02   00uu00uuuu :  6.99e-02   0uu00uuu0u :  1.19e-01   
0uuu0uuu00 :  6.10e-02   00uuuuu00u :  6.23e-02   00uu0uuuu0 :  1.09e-01   
000uuuuuu0 :  6.08e-02   00uu0uu0uu :  6.04e-02   u0u00uuuu0 :  9.48e-02   
000uuu0uuu :  3.20e-02   u00uuuuu00 : -5.52e-02   00u0uuu0uu :  8.30e-02   
u000uuuuu0 : -2.71e-02   u0u00uuu0u :  4.69e-02   000uuu0uuu :  7.28e-02   
State 9/13               State 10/13              State 11/13              
00uu0uuu0u :  7.22e-01   00u0uuuu0u : -5.85e-01   00u0uu0uuu : -6.21e-01   
000uu0uuuu : -3.75e-01   000uuuuuu0 : -5.15e-01   00uu00uuuu : -5.03e-01   
0u0u0uuu0u : -3.67e-01   000uuu0uuu :  3.44e-01   0uu00uuuu0 : -4.90e-01   
00u0uuuuu0 : -2.39e-01   0u00uuuu0u : -3.15e-01   00uu0uuu0u :  1.79e-01   
00uu00uuuu :  2.01e-01   00u0u0uuuu : -2.49e-01   0u00uuuuu0 : -1.52e-01   
000uuuuu0u : -1.92e-01   00uu0uuuu0 :  2.10e-01   0u00uu0uuu : -1.44e-01   
0u0u00uuuu : -1.33e-01   0u0u0uuuu0 : -1.39e-01   0u0u0uuu0u : -1.17e-01   
00uu0uu0uu :  1.19e-01   0uu00uuu0u : -1.17e-01   000uu0uuuu : -9.87e-02   
00u0uu0uuu :  1.02e-01   00u0uuu0uu :  1.01e-01   0u0u00uuuu :  7.27e-02   
0uu00uuuu0 :  9.57e-02   u000uuuuu0 : -6.75e-02   u0u00uuu0u : -6.47e-02   
State 12/13              
00u0uuu0uu : -6.02e-01   
000uuu0uuu :  5.36e-01   
00uu0u0uuu :  3.65e-01   
00u0u0uuuu : -2.90e-01   
00u0uuuu0u :  2.44e-01   
0u0u0uuuu0 :  1.36e-01   
0u00uuu0uu : -1.05e-01   
000uuuuuu0 :  7.56e-02   
u000uuuuu0 :  7.32e-02   
u0u00u0uuu :  7.18e-02   
Rootspace 23 with averaged weight 1.975e-07
 Frag    Nelec  2S+1   Ir     <n>  Max(weight)   Entropy
    0    3a+2b     6    A   0.131       0.9738  0.118545
    1    3a+3b     7    A   2.699       0.8883  0.119782
Wave function(s) in rootspace 23 in local primitive basis:
   Fac:  4.906e-04  5.567e-04  3.849e-04  5.077e-04  1.763e-04
   0.3:  9.444e-01  9.428e-01 -9.401e-01 -9.360e-01  9.306e-01
   0.0:  2.719e-01  2.764e-01 -2.838e-01 -2.947e-01  3.084e-01
   5.0: -1.196e-01 -1.201e-01  1.208e-01  1.218e-01 -1.231e-01
   0.2: -8.525e-02 -8.752e-02  9.132e-02  9.677e-02 -1.038e-01
   5.3:  7.727e-02  7.757e-02 -7.807e-02 -7.879e-02  7.967e-02
   5.2: -4.840e-02 -4.826e-02  4.804e-02  4.770e-02 -4.726e-02
  0.10:  2.807e-02  2.810e-02 -2.813e-02 -2.817e-02  2.821e-02
   1.0: -2.671e-02 -2.657e-02  2.632e-02  2.597e-02 -2.553e-02
   4.3: -2.016e-02 -2.022e-02  2.031e-02  2.045e-02 -2.064e-02
   4.0:  1.718e-02  1.731e-02 -1.751e-02 -1.781e-02  1.820e-02
  10.0: -1.703e-02 -1.715e-02  1.735e-02  1.764e-02 -1.801e-02
   4.2: -1.547e-02 -1.553e-02  1.563e-02  1.576e-02 -1.594e-02
  10.3:  1.528e-02  1.536e-02 -1.548e-02 -1.565e-02  1.587e-02
   0.8: -1.446e-02 -1.448e-02  1.451e-02  1.456e-02 -1.462e-02
   9.0: -1.213e-02 -1.208e-02  1.198e-02  1.185e-02 -1.167e-02
   2.1: -1.176e-02 -1.176e-02  1.177e-02  1.177e-02 -1.176e-02
   1.3:  1.176e-02  1.156e-02 -1.122e-02 -1.074e-02  1.012e-02
   0.6:  1.084e-02  1.086e-02 -1.090e-02 -1.095e-02  1.101e-02
   9.2:  1.033e-02  1.029e-02 -1.023e-02 -1.013e-02  9.996e-03
   3.4:  9.553e-03  9.564e-03 -9.582e-03 -9.605e-03  9.633e-03
   7.0: -9.191e-03 -9.290e-03  9.453e-03  9.691e-03 -9.997e-03
   3.1:  8.348e-03  8.333e-03 -8.307e-03 -8.267e-03  8.210e-03
   7.2: -7.211e-03 -7.164e-03  7.085e-03  6.972e-03 -6.824e-03
  0.12:  6.665e-03  6.670e-03 -6.678e-03 -6.690e-03  6.705e-03
   9.3:  6.576e-03  6.561e-03 -6.536e-03 -6.497e-03  6.443e-03
  11.1:  4.926e-03  4.918e-03 -4.905e-03 -4.886e-03  4.863e-03
   7.3:  4.225e-03  4.257e-03 -4.309e-03 -4.386e-03  4.487e-03
  10.2: -4.240e-03 -4.180e-03  4.080e-03  3.936e-03 -3.750e-03
   8.4:  3.271e-03  3.281e-03 -3.299e-03 -3.324e-03  3.355e-03
   1.2: -2.325e-03 -2.316e-03  2.301e-03  2.280e-03 -2.252e-03
   6.1:  2.265e-03  2.267e-03 -2.269e-03 -2.271e-03  2.271e-03
  5.10:  1.822e-03  1.821e-03 -1.820e-03 -1.817e-03  1.813e-03
   2.4:  1.199e-03  1.212e-03 -1.234e-03 -1.265e-03  1.306e-03
  12.4: -1.153e-03 -1.159e-03  1.168e-03  1.182e-03 -1.198e-03
  12.1: -8.627e-04 -8.816e-04  9.131e-04  9.587e-04 -1.017e-03
   8.1: -7.848e-04 -7.981e-04  8.204e-04  8.530e-04 -8.954e-04
  11.4:  5.895e-04  5.841e-04 -5.752e-04 -5.624e-04  5.468e-04
   5.8: -5.034e-04 -5.039e-04  5.047e-04  5.060e-04 -5.073e-04
  9.10: -5.013e-04 -5.018e-04  5.025e-04  5.035e-04 -5.045e-04
 10.10:  4.185e-04  4.189e-04 -4.196e-04 -4.204e-04  4.213e-04
  7.10:  3.924e-04  3.930e-04 -3.940e-04 -3.953e-04  3.969e-04
   5.6:  3.431e-04  3.424e-04 -3.411e-04 -3.393e-04  3.367e-04
  10.8: -1.389e-04 -1.390e-04  1.392e-04  1.394e-04 -1.397e-04
   6.4:  1.465e-04  1.440e-04 -1.397e-04 -1.332e-04  1.243e-04
  1.10: -1.310e-04 -1.297e-04  1.276e-04  1.245e-04 -1.207e-04
   9.8:  1.082e-04  1.083e-04 -1.086e-04 -1.090e-04  1.095e-04
   0.4: -1.085e-04 -1.084e-04  1.086e-04  1.084e-04 -1.083e-04
   7.8: -1.052e-04 -1.054e-04  1.058e-04  1.063e-04 -1.070e-04
   4.8:  9.759e-05  9.793e-05 -9.852e-05 -9.932e-05  1.004e-04
   9.6: -8.869e-05 -8.861e-05  8.847e-05  8.827e-05 -8.798e-05
  10.6:  7.343e-05  7.335e-05 -7.323e-05 -7.304e-05  7.279e-05
   0.1:  7.285e-05  7.260e-05 -7.223e-05 -7.162e-05  7.081e-05
  5.12:  6.716e-05  6.736e-05 -6.771e-05 -6.841e-05  6.938e-05
   7.6:  6.777e-05  6.777e-05 -6.776e-05 -6.774e-05  6.774e-05
Remaining 115 ENVs in rootspace 23 have combined average weight = 9.156140e-09
Leading 10 CSFs of 13 local primitive basis functions for fragment 0 in rootspace 23:
State 0/13               State 1/13               State 2/13               
00000uuuuu :  9.82e-01   0000u0uuuu : -9.09e-01   0000uuuu0u : -8.48e-01   
0000uuuuu0 : -1.14e-01   0000uuu0uu : -3.73e-01   0000uu0uuu : -4.88e-01   
000u00uuuu : -7.48e-02   00u0u00uuu :  9.11e-02   000uu0uu0u : -8.82e-02   
00u00u0uuu : -7.11e-02   0u00u0u0uu :  8.78e-02   00u0uu0u0u : -8.78e-02   
0u000uu0uu : -6.75e-02   u000u0uu0u :  7.35e-02   0u00uuu00u : -8.72e-02   
u0000uuu0u : -5.76e-02   000u00uuuu : -4.78e-02   0u000uuu0u : -6.36e-02   
uu000uu00u : -2.25e-02   00u0uu00uu : -4.04e-02   0u000u0uuu : -6.35e-02   
0uu00u00uu : -2.17e-02   000uu0u0uu : -3.86e-02   00u000uuuu :  5.20e-02   
000uu0uuu0 :  2.10e-02   00u00uuu0u :  3.76e-02   000uu00uuu : -5.06e-02   
0u0u00u0uu : -1.97e-02   00u00u0uuu :  3.63e-02   0u00uu00uu :  4.63e-02   
State 3/13               State 4/13               State 5/13               
0000uu0uuu : -8.49e-01   0000uuu0uu :  9.02e-01   0000uuuuu0 :  9.07e-01   
0000uuuu0u :  4.89e-01   0000u0uuuu : -3.79e-01   000u00uuuu : -2.98e-01   
0u00uu00uu :  8.62e-02   000uu0u0uu :  9.11e-02   00u00u0uuu : -1.83e-01   
000uu00uuu : -8.62e-02   00u0uu00uu :  9.01e-02   0u000uu0uu : -1.12e-01   
000u0u0uuu : -7.61e-02   u000uuu00u : -7.96e-02   0000uuu0uu :  8.60e-02   
u000uu0u0u :  7.02e-02   0000uuuuu0 : -6.91e-02   0u00uuu0u0 :  7.14e-02   
0u000u0uuu : -6.36e-02   000u00uuuu :  6.05e-02   u000uuuu00 :  6.74e-02   
0u00uuu00u :  5.38e-02   0u000uu0uu :  4.36e-02   00u0uu0uu0 :  6.66e-02   
000uu0uu0u :  4.98e-02   0u00u0u0uu :  3.73e-02   00000uuuuu :  5.71e-02   
00u0uu0u0u :  4.31e-02   00u0u00uuu :  3.45e-02   000uu0uuu0 :  5.51e-02   
State 6/13               State 7/13               State 8/13               
000u0uuu0u :  8.02e-01   000u0uu0uu :  6.25e-01   00u00uu0uu :  6.87e-01   
0u000uuu0u : -4.93e-01   000u0uuuu0 : -4.40e-01   00u000uuuu :  6.09e-01   
00u00uu0uu : -1.55e-01   000u00uuuu :  3.72e-01   00u00uuuu0 :  2.04e-01   
00u000uuuu : -1.23e-01   00u00uuu0u : -3.04e-01   000u0uuu0u :  1.90e-01   
00u00uuuu0 :  1.20e-01   0u000uu0uu : -2.86e-01   u0000uu0uu : -1.32e-01   
000u0u0uuu :  1.16e-01   00u00u0uuu : -1.67e-01   000u0u0uuu :  1.12e-01   
000uuuuu00 :  1.14e-01   0u000uuuu0 :  1.36e-01   u00000uuuu : -1.07e-01   
00uu0u0u0u :  7.83e-02   0u0000uuuu : -9.92e-02   00u0uuu0u0 :  9.53e-02   
0u0u0uu00u :  7.73e-02   000uuuu0u0 :  8.72e-02   00u0u0uuu0 :  9.04e-02   
0u00uuuu00 : -7.11e-02   0000uuuuu0 :  7.43e-02   00uu00u0uu : -6.88e-02   
State 9/13               State 10/13              State 11/13              
00u00uuu0u : -5.86e-01   000u0uuuu0 :  5.41e-01   000u0u0uuu :  8.69e-01   
000u0uuuu0 : -4.75e-01   0u000uu0uu : -4.42e-01   0u000uuu0u :  3.01e-01   
000u0uu0uu : -3.97e-01   0u0000uuuu : -4.42e-01   00u00uu0uu : -2.51e-01   
000u00uuuu : -3.38e-01   000u00uuuu :  3.68e-01   0u000u0uuu : -1.65e-01   
00u00u0uuu :  2.69e-01   00u00uuu0u : -2.80e-01   00u000uuuu :  1.29e-01   
0u0000uuuu : -1.83e-01   000u0uu0uu : -2.46e-01   000uuu0uu0 :  1.25e-01   
u0000uuu0u :  9.44e-02   0u00u0uuu0 : -6.61e-02   0u0u0u00uu : -8.35e-02   
00u0uuuu00 : -8.26e-02   000uu0uuu0 :  5.96e-02   u0000uu0uu :  7.63e-02   
0000uuuuu0 : -6.09e-02   0u00uuu0u0 : -5.72e-02   u00u0u0u0u : -6.70e-02   
0uu00uu00u : -5.66e-02   00uu0u0uu0 :  5.38e-02   0000uu0uuu : -5.18e-02   
State 12/13              
0u000uuu0u :  7.32e-01   
000u0uuu0u :  4.37e-01   
000u0u0uuu : -3.51e-01   
0u000u0uuu : -2.65e-01   
00u00uuuu0 :  1.58e-01   
00u00uu0uu : -1.17e-01   
0u00uuuu00 :  1.04e-01   
0u0u00uu0u : -7.51e-02   
0uu00u0u0u : -6.80e-02   
000uuuuu00 :  6.05e-02   
Leading 10 CSFs of 13 local primitive basis functions for fragment 1 in rootspace 23:
State 0/13               State 1/13               State 2/13               
0000uuuuuu :  9.57e-01   000u0uuuuu :  9.91e-01   00u00uuuuu :  9.59e-01   
00u00uuuuu :  2.49e-01   0u0u0uuu0u : -6.41e-02   0000uuuuuu : -2.50e-01   
000uuu0uuu : -6.19e-02   000uu0uuuu :  6.41e-02   00u0u0uuuu :  6.08e-02   
0u00uuuu0u : -6.18e-02   00uu0uu0uu : -6.18e-02   00uu0u0uuu :  6.01e-02   
00u0uuu0uu : -5.97e-02   u00u0uuuu0 : -5.63e-02   u0u00uuuu0 : -5.96e-02   
0u000uuuuu : -5.95e-02   u0uu0uu0u0 : -2.39e-02   0uu00uuu0u : -5.84e-02   
u000uuuuu0 : -5.41e-02   0u0uu0uu0u :  2.28e-02   0uuu0u0u0u :  2.19e-02   
u0u0uuu0u0 : -2.30e-02   00uuu0u0uu :  2.07e-02   0uu0u0uu0u :  2.18e-02   
0u0uuu0u0u : -2.18e-02   u00uu0uuu0 :  1.95e-02   00uuu00uuu : -2.12e-02   
00uuuu00uu : -1.96e-02   0uuu0uu00u : -1.94e-02   u0uu0u0uu0 :  1.91e-02   
State 3/13               State 4/13               State 5/13               
0u000uuuuu :  9.89e-01   u0000uuuuu :  9.90e-01   00u0uuuuu0 :  9.33e-01   
0u00u0uuuu :  6.59e-02   u0u00uu0uu :  6.86e-02   00uu0uuu0u :  2.97e-01   
0u0u0u0uuu :  6.54e-02   u00u0u0uuu :  6.38e-02   0u00uuuuu0 :  1.30e-01   
0uu00uu0uu :  6.05e-02   u000u0uuuu :  6.36e-02   0uu00uuuu0 :  6.30e-02   
0000uuuuuu :  5.77e-02   uu000uuu0u :  6.08e-02   00uuuu0uu0 : -6.14e-02   
uu000uuuu0 : -5.48e-02   uu00u0uu0u : -2.27e-02   0uu0uuuu00 :  6.05e-02   
uuu00uu0u0 :  2.39e-02   uu0u0u0u0u : -2.25e-02   00u0uu0uuu : -5.91e-02   
0u0uu00uuu : -2.13e-02   u00uu00uuu : -2.14e-02   00uu00uuuu :  5.84e-02   
0uu0u0u0uu : -2.07e-02   u0u0u0u0uu : -2.04e-02   000uuuuu0u : -3.93e-02   
0uuu0u00uu : -2.06e-02   u0uu0u00uu : -2.03e-02   u00u0uuuu0 :  3.21e-02   
State 6/13               State 7/13               State 8/13               
00uu0uuuu0 :  9.43e-01   000uuuuu0u :  9.06e-01   000uuuuuu0 :  7.37e-01   
00u0uuuu0u :  2.65e-01   00uu0uuu0u :  3.32e-01   00u0uuuu0u : -5.55e-01   
00u0u0uuuu :  9.92e-02   000uu0uuuu :  1.69e-01   00uu0u0uuu :  2.11e-01   
0u0u0uuuu0 : -9.56e-02   0u0u0uuu0u :  1.11e-01   0u00uuuu0u : -1.45e-01   
0uu00uuu0u :  7.42e-02   00u0uuuuu0 : -7.18e-02   0u0u0uuuu0 :  1.32e-01   
00uuu0uuu0 :  6.26e-02   00uu00uuuu :  7.01e-02   0uu00uuu0u :  1.19e-01   
0uuu0uuu00 :  6.10e-02   00uuuuu00u :  6.23e-02   00uu0uuuu0 :  1.09e-01   
000uuuuuu0 :  6.09e-02   00uu0uu0uu :  6.07e-02   u0u00uuuu0 :  9.48e-02   
000uuu0uuu :  3.21e-02   u00uuuuu00 : -5.52e-02   00u0uuu0uu :  8.27e-02   
u000uuuuu0 : -2.71e-02   u0u00uuu0u :  4.69e-02   000uuu0uuu :  7.26e-02   
State 9/13               State 10/13              State 11/13              
00uu0uuu0u :  7.22e-01   00u0uuuu0u : -5.86e-01   00u0uu0uuu : -6.21e-01   
000uu0uuuu : -3.75e-01   000uuuuuu0 : -5.14e-01   00uu00uuuu : -5.02e-01   
0u0u0uuu0u : -3.67e-01   000uuu0uuu :  3.44e-01   0uu00uuuu0 : -4.90e-01   
00u0uuuuu0 : -2.38e-01   0u00uuuu0u : -3.15e-01   00uu0uuu0u :  1.80e-01   
00uu00uuuu :  2.02e-01   00u0u0uuuu : -2.49e-01   0u00uuuuu0 : -1.52e-01   
000uuuuu0u : -1.91e-01   00uu0uuuu0 :  2.10e-01   0u00uu0uuu : -1.44e-01   
0u0u00uuuu : -1.34e-01   0u0u0uuuu0 : -1.39e-01   0u0u0uuu0u : -1.18e-01   
00uu0uu0uu :  1.19e-01   0uu00uuu0u : -1.17e-01   000uu0uuuu : -9.88e-02   
00u0uu0uuu :  1.03e-01   00u0uuu0uu :  1.01e-01   0u0u00uuuu :  7.23e-02   
0uu00uuuu0 :  9.63e-02   u000uuuuu0 : -6.74e-02   u0u00uuu0u : -6.47e-02   
State 12/13              
00u0uuu0uu : -6.03e-01   
000uuu0uuu :  5.35e-01   
00uu0u0uuu :  3.64e-01   
00u0u0uuuu : -2.89e-01   
00u0uuuu0u :  2.45e-01   
0u0u0uuuu0 :  1.36e-01   
0u00uuu0uu : -1.05e-01   
000uuuuuu0 :  7.56e-02   
u000uuuuu0 :  7.33e-02   
u0u00u0uuu :  7.18e-02   
All 33 rootspaces accounted for
