#INFO: **** input file is /project/lgagliardi/valayagarawal/lasscf/mof_nodes/Al_Fe_Fe/production/20_11/lassi_1_3.py ****
import numpy as np
import sys
from pyscf import gto, scf, tools,lib, mcscf
from pyscf.mcscf import avas,project_init_guess
from pyscf import mcscf
from mrh.my_pyscf.tools import molden
from mrh.my_pyscf.mcscf import lasscf_async as asyn
mol_name='Al_Fe_Fe.xyz' # Al-Fe-Fe MOF node
basis={'C': 'cc-pvdz','H': 'cc-pvdz','O': 'cc-pvtz','Al': 'cc-pvtz','Fe': 'cc-pvtz'}
n=3
output='r1_n'+str(n)+'.log'
mol=gto.M(atom=mol_name,verbose=4,spin=9,charge=0,basis=basis, output=output) #spin = 2S
mf=scf.RHF(mol)
mf.init_guess='atom'
mf=mf.density_fit()
mf.max_cycle=1
mf.kernel()
mf.mo_coeff=np.load('hf.npy')
#np.save('hf',mf.mo_coeff)
#ncas,nelecas,guess_mo_coeff=avas.kernel(mf,['Fe 3d', 'Fe 4d'],minao=mol.basis, openshell_option=3)
#mc_test = mcscf.CASCI (mf, ncas, nelecas)
#tools.molden.from_mo(mol,'avas.molden',guess_mo_coeff[:,mc_test.ncore:][:,:ncas])
#final_list=[5,6,8,9,10,11,12,13,14]#,15,16,17,18,19,20,21,22,23,24,25]+mc_test.ncore

mo_guess=np.load('las_20_11.npy')
las=asyn.LASSCF(mf,(10,10),((1,5),(5,0)),spin_sub=(5,6),verbose=4) # spin is 2S+1
las.set_fragments_(([17],[19]),mo_guess)
las.mo_coeff=mo_guess
from mrh.my_pyscf.lassi import states
las=states.spin_shuffle(las)
#for _ in range(i):
las=states.all_single_excitations(las)
ncsf=las.get_ugg().ncsf_sub
lroots=np.minimum(n,ncsf)
las.lasci()
las.lasci(lroots=lroots)
e_roots, si= las.lassi(opt=1)
from mrh.my_pyscf.lassi.sitools import analyze
analyze(las,si, state=[0,1,2,3,4])
#INFO: ******************** input file end ********************


System: uname_result(system='Linux', node='midway3-0544.rcc.local', release='4.18.0-305.3.1.el8.x86_64', version='#1 SMP Tue Jun 1 16:14:33 UTC 2021', machine='x86_64')  Threads 16
Python 3.9.12 (main, Apr  5 2022, 06:56:58) 
[GCC 7.5.0]
numpy 1.25.0  scipy 1.7.3
Date: Tue Feb 20 18:12:42 2024
PySCF version 2.5.0
PySCF path  /project/lgagliardi/shared/Apps/pyscf
GIT ORIG_HEAD 0bc590ffddec98eec5d2513a3d85274b7a791bc6
GIT HEAD (branch master) 6f8ce439fbe0c26ec4d226e2225b28c7f668f922

[ENV] PYSCF_MAX_MEMORY 128000
[CONFIG] conf_file /home/valayagarawal/.pyscf_conf.py
[INPUT] verbose = 4
[INPUT] num. atoms = 28
[INPUT] num. electrons = 211
[INPUT] charge = 0
[INPUT] spin (= nelec alpha-beta = 2S) = 9
[INPUT] symmetry False subgroup None
[INPUT] Mole.unit = angstrom
[INPUT] Symbol           X                Y                Z      unit          X                Y                Z       unit  Magmom
[INPUT]  1 O     -2.220198244100   0.399190300300   1.694471698900 AA   -4.195566623589   0.754360339150   3.202087436747 Bohr   0.0
[INPUT]  2 O     -1.685553244600  -1.782306321700   1.431399507200 AA   -3.185234000666  -3.368070818094   2.704953043445 Bohr   0.0
[INPUT]  3 C     -2.268517865100  -0.831955037900   1.983951274000 AA   -4.286877473722  -1.572167169583   3.749124552342 Bohr   0.0
[INPUT]  4 H     -2.913342016700  -1.076728588500   2.843786805300 AA   -5.505418518751  -2.034722142755   5.373978218669 Bohr   0.0
[INPUT]  5 O      1.388288080900   2.079556156200  -1.347085675300 AA    2.623484254899   3.929791595871  -2.545622992642 Bohr   0.0
[INPUT]  6 O     -0.759908859500   2.580923634700  -0.849227704000 AA   -1.436019624086   4.877238818000  -1.604807777953 Bohr   0.0
[INPUT]  7 C      0.346567468600   2.753895325000  -1.438835699000 AA    0.654917599338   5.204107939970  -2.719005409357 Bohr   0.0
[INPUT]  8 H      0.372379614500   3.617699659800  -2.123091150300 AA    0.703695485776   6.836461557954  -4.012060811555 Bohr   0.0
[INPUT]  9 O      1.046960908100  -2.642534200000   0.961324672200 AA    1.978469379435  -4.993665912797   1.816640347245 Bohr   0.0
[INPUT] 10 O     -0.399190300300   2.220198244100   1.694471698900 AA   -0.754360339150   4.195566623589   3.202087436747 Bohr   0.0
[INPUT] 11 O      1.782306321700   1.685553244600   1.431399507200 AA    3.368070818094   3.185234000666   2.704953043445 Bohr   0.0
[INPUT] 12 C      0.831955037900   2.268517865100   1.983951274000 AA    1.572167169583   4.286877473722   3.749124552342 Bohr   0.0
[INPUT] 13 H      1.076728588500   2.913342016700   2.843786805300 AA    2.034722142755   5.505418518751   5.373978218669 Bohr   0.0
[INPUT] 14 O     -2.079556156200  -1.388288080900  -1.347085675300 AA   -3.929791595871  -2.623484254899  -2.545622992642 Bohr   0.0
[INPUT] 15 O     -2.580923634700   0.759908859500  -0.849227704000 AA   -4.877238818000   1.436019624086  -1.604807777953 Bohr   0.0
[INPUT] 16 C     -2.753895325000  -0.346567468600  -1.438835699000 AA   -5.204107939970  -0.654917599338  -2.719005409357 Bohr   0.0
[INPUT] 17 H     -3.617699659800  -0.372379614500  -2.123091150300 AA   -6.836461557954  -0.703695485776  -4.012060811555 Bohr   0.0
[INPUT] 18 Fe    -0.379874189300  -1.792603362900  -0.200337730300 AA   -0.717858179568  -3.387529405855  -0.378583442684 Bohr   0.0
[INPUT] 19 O      0.642223180300  -2.237796553000  -1.892914517600 AA    1.213625921614  -4.228822607666  -3.577090015477 Bohr   0.0
[INPUT] 20 Fe     1.792603362900   0.379874189300  -0.200337730300 AA    3.387529405855   0.717858179568  -0.378583442684 Bohr   0.0
[INPUT] 21 O      2.237796553000  -0.642223180300  -1.892914517600 AA    4.228822607666  -1.213625921614  -3.577090015477 Bohr   0.0
[INPUT] 22 O      2.642534200000  -1.046960908100   0.961324672200 AA    4.993665912797  -1.978469379435   1.816640347245 Bohr   0.0
[INPUT] 23 Al    -1.236271642100   1.236271642100   0.350650148000 AA   -2.336214819135   2.336214819135   0.662632745258 Bohr   0.0
[INPUT] 24 O     -0.044950195400   0.044950195400   0.012762141300 AA   -0.084943558552   0.084943558552   0.024116951820 Bohr   0.0
[INPUT] 25 C      1.645528685000  -1.645528685000  -2.357112465400 AA    3.109598544766  -3.109598544766  -4.454297004404 Bohr   0.0
[INPUT] 26 H      2.056906298400  -2.056906298400  -3.294571291600 AA    3.886989567869  -3.886989567869  -6.225837438979 Bohr   0.0
[INPUT] 27 C      2.160924281100  -2.160924281100   1.277584186800 AA    4.083555067202  -4.083555067202   2.414284214127 Bohr   0.0
[INPUT] 28 H      2.796080543300  -2.796080543300   1.918244302400 AA    5.283826449062  -5.283826449062   3.624956371543 Bohr   0.0

nuclear repulsion = 3455.30471244119
number of shells = 192
number of NR pGTOs = 1065
number of NR cGTOs = 674
basis = {'C': 'cc-pvdz', 'H': 'cc-pvdz', 'O': 'cc-pvtz', 'Al': 'cc-pvtz', 'Fe': 'cc-pvtz'}
ecp = {}
CPU time:         1.55


******** <class 'pyscf.df.df_jk.DFROHF'> ********
method = DFROHF
initial guess = atom
damping factor = 0
level_shift factor = 0
DIIS = <class 'pyscf.scf.diis.CDIIS'>
diis_start_cycle = 1
diis_space = 8
diis_damp = 0
SCF conv_tol = 1e-09
SCF conv_tol_grad = None
SCF max_cycles = 1
direct_scf = False
chkfile to save SCF result = /scratch/local/jobs/17478232/tmp2y29gnze
max_memory 128000 MB (current use 76 MB)
num. doubly occ = 101  num. singly occ = 9
Set gradient conv threshold to 3.16228e-05
Initial guess from the superpostion of atomic densties.
Spherically averaged atomic HF for {'H', 'Fe', 'Al', 'C', 'O'}


******** <class 'pyscf.scf.atom_hf.AtomSphAverageRHF'> ********
method = AtomSphAverageRHF
initial guess = minao
damping factor = 0
level_shift factor = 0
DIIS = <class 'pyscf.scf.diis.CDIIS'>
diis_start_cycle = 1
diis_space = 8
diis_damp = 0
SCF conv_tol = 1e-09
SCF conv_tol_grad = None
SCF max_cycles = 50
direct_scf = True
direct_scf_tol = 1e-13
chkfile to save SCF result = /scratch/local/jobs/17478232/tmpb2zl4fxb
max_memory 128000 MB (current use 76 MB)
atom = O
Set gradient conv threshold to 3.16228e-05
Initial guess from minao.
init E= -74.2776996160121
cycle= 1 E= -74.2879632957298  delta_E= -0.0103  |g|=    0  |ddm|= 0.12
cycle= 2 E= -74.2889455295058  delta_E= -0.000982  |g|=    0  |ddm|= 0.0571
cycle= 3 E= -74.2891874928552  delta_E= -0.000242  |g|=    0  |ddm|= 0.0164
cycle= 4 E= -74.2891907662377  delta_E= -3.27e-06  |g|=    0  |ddm|= 0.00334
cycle= 5 E= -74.2891907667002  delta_E= -4.63e-10  |g|=    0  |ddm|= 2.73e-05
Extra cycle  E= -74.2891907667016  delta_E= -1.41e-12  |g|=    0  |ddm|= 2.08e-06
Atomic HF for atom  O  converged. SCF energy = -74.2891907667016



******** <class 'pyscf.scf.atom_hf.AtomSphAverageRHF'> ********
method = AtomSphAverageRHF
initial guess = minao
damping factor = 0
level_shift factor = 0
DIIS = <class 'pyscf.scf.diis.CDIIS'>
diis_start_cycle = 1
diis_space = 8
diis_damp = 0
SCF conv_tol = 1e-09
SCF conv_tol_grad = None
SCF max_cycles = 50
direct_scf = True
direct_scf_tol = 1e-13
chkfile to save SCF result = /scratch/local/jobs/17478232/tmp_i5m8g4d
max_memory 128000 MB (current use 98 MB)
atom = C
Set gradient conv threshold to 3.16228e-05
Initial guess from minao.
init E= -37.2786538116583
cycle= 1 E= -37.3229525149147  delta_E= -0.0443  |g|=    0  |ddm|= 0.403
cycle= 2 E= -37.3269979443145  delta_E= -0.00405  |g|=    0  |ddm|= 0.158
cycle= 3 E= -37.3274168905011  delta_E= -0.000419  |g|=    0  |ddm|= 0.0324
cycle= 4 E= -37.3274218270201  delta_E= -4.94e-06  |g|=    0  |ddm|= 0.00651
cycle= 5 E= -37.3274218271775  delta_E= -1.57e-10  |g|=    0  |ddm|= 2.35e-05
Extra cycle  E= -37.3274218271781  delta_E= -6.39e-13  |g|=    0  |ddm|= 2.26e-06
Atomic HF for atom  C  converged. SCF energy = -37.3274218271781



******** 1 electron system ********
Atomic HF for atom  H  converged. SCF energy = -0.499278403419583



******** <class 'pyscf.scf.atom_hf.AtomSphAverageRHF'> ********
method = AtomSphAverageRHF
initial guess = minao
damping factor = 0
level_shift factor = 0
DIIS = <class 'pyscf.scf.diis.CDIIS'>
diis_start_cycle = 1
diis_space = 8
diis_damp = 0
SCF conv_tol = 1e-09
SCF conv_tol_grad = None
SCF max_cycles = 50
direct_scf = True
direct_scf_tol = 1e-13
chkfile to save SCF result = /scratch/local/jobs/17478232/tmpeg8ptuih
max_memory 128000 MB (current use 100 MB)
atom = Fe
Set gradient conv threshold to 3.16228e-05
Initial guess from minao.
init E= -1260.96738533155
cycle= 1 E= -1256.37714318082  delta_E= 4.59  |g|=    0  |ddm|= 4.24
cycle= 2 E= -1255.54237595451  delta_E= 0.835  |g|=    0  |ddm|=   15
cycle= 3 E= -1260.89038467173  delta_E= -5.35  |g|=    0  |ddm|= 13.7
cycle= 4 E= -1261.57047534209  delta_E= -0.68  |g|=    0  |ddm|= 0.824
cycle= 5 E= -1261.57622492119  delta_E= -0.00575  |g|=    0  |ddm|= 0.301
cycle= 6 E= -1261.57666902676  delta_E= -0.000444  |g|=    0  |ddm|= 0.0322
cycle= 7 E= -1261.57674274458  delta_E= -7.37e-05  |g|=    0  |ddm|= 0.0137
cycle= 8 E= -1261.57674388082  delta_E= -1.14e-06  |g|=    0  |ddm|= 0.00344
cycle= 9 E= -1261.57674388923  delta_E= -8.41e-09  |g|=    0  |ddm|= 0.000127
cycle= 10 E= -1261.57674388923  delta_E= -6.82e-13  |g|=    0  |ddm|= 3.35e-06
Extra cycle  E= -1261.57674388923  delta_E= 4.55e-13  |g|=    0  |ddm|= 3.97e-07
Atomic HF for atom  Fe  converged. SCF energy = -1261.57674388923



******** <class 'pyscf.scf.atom_hf.AtomSphAverageRHF'> ********
method = AtomSphAverageRHF
initial guess = minao
damping factor = 0
level_shift factor = 0
DIIS = <class 'pyscf.scf.diis.CDIIS'>
diis_start_cycle = 1
diis_space = 8
diis_damp = 0
SCF conv_tol = 1e-09
SCF conv_tol_grad = None
SCF max_cycles = 50
direct_scf = True
direct_scf_tol = 1e-13
chkfile to save SCF result = /scratch/local/jobs/17478232/tmpskaehkjt
max_memory 128000 MB (current use 128 MB)
atom = Al
Set gradient conv threshold to 3.16228e-05
Initial guess from minao.
init E= -241.752580224975
cycle= 1 E= -241.774394279578  delta_E= -0.0218  |g|=    0  |ddm|= 0.33
cycle= 2 E= -241.774822880148  delta_E= -0.000429  |g|=    0  |ddm|= 0.0589
cycle= 3 E= -241.77484101355  delta_E= -1.81e-05  |g|=    0  |ddm|= 0.00725
cycle= 4 E= -241.774841578884  delta_E= -5.65e-07  |g|=    0  |ddm|= 0.00216
cycle= 5 E= -241.774841604663  delta_E= -2.58e-08  |g|=    0  |ddm|= 0.000719
cycle= 6 E= -241.774841604811  delta_E= -1.48e-10  |g|=    0  |ddm|= 5.97e-05
Extra cycle  E= -241.774841604812  delta_E= -1.31e-12  |g|=    0  |ddm|= 4.44e-06
Atomic HF for atom  Al  converged. SCF energy = -241.774841604812

******** <class 'pyscf.df.df.DF'> ********
auxbasis = None
max_memory = 128000
Even tempered Gaussians are generated as DF auxbasis for  C H Fe Al O
init E= -3975.68788353037
  HOMO = -0.0424478076028982  LUMO = -0.0316668341931044
cycle= 1 E= -3969.65777955844  delta_E= 6.03  |g|= 3.14  |ddm|= 4.67
SCF not converged.
SCF energy = -3969.65777955844
Built 4 spin(local Sz)-shuffled LAS states from 1 reference LAS states
Built 28 singly-excited LAS states from 5 reference LAS states
Entering product-state fixed-point CI iteration
Cycle 0: max grad = 1.884708e-01 ; sigma = 0.000000e+00
Cycle 1: max grad = 1.229424e-05 ; sigma = 3.346305e-02
Cycle 2: max grad = 2.560975e-06 ; sigma = 8.627410e-11
Product_state fixed-point CI iteration converged after 2 cycles
Entering product-state fixed-point CI iteration
Cycle 0: max grad = 1.884708e-01 ; sigma = 0.000000e+00
Cycle 1: max grad = 5.393863e-06 ; sigma = 3.348211e-02
Cycle 2: max grad = 2.369173e-06 ; sigma = 5.265122e-12
Product_state fixed-point CI iteration converged after 2 cycles
Entering product-state fixed-point CI iteration
Cycle 0: max grad = 1.884708e-01 ; sigma = 0.000000e+00
Cycle 1: max grad = 3.475708e-06 ; sigma = 3.349033e-02
Cycle 2: max grad = 2.276478e-06 ; sigma = 6.217249e-12
Product_state fixed-point CI iteration converged after 2 cycles
Entering product-state fixed-point CI iteration
Cycle 0: max grad = 1.884708e-01 ; sigma = 0.000000e+00
Cycle 1: max grad = 3.522775e-06 ; sigma = 3.348759e-02
Cycle 2: max grad = 2.308122e-06 ; sigma = 8.569145e-12
Product_state fixed-point CI iteration converged after 2 cycles
Entering product-state fixed-point CI iteration
Cycle 0: max grad = 1.884708e-01 ; sigma = 0.000000e+00
Cycle 1: max grad = 8.368410e-06 ; sigma = 3.347392e-02
Cycle 2: max grad = 2.455328e-06 ; sigma = 1.881517e-11
Product_state fixed-point CI iteration converged after 2 cycles
Entering product-state fixed-point CI iteration
Cycle 0: max grad = 2.784311e-01 ; sigma = 0.000000e+00
Cycle 1: max grad = 4.634879e-05 ; sigma = 5.318269e-02
Cycle 2: max grad = 5.292951e-07 ; sigma = 5.085564e-08
Cycle 3: max grad = 8.523446e-10 ; sigma = 6.146195e-13
Product_state fixed-point CI iteration converged after 3 cycles
Entering product-state fixed-point CI iteration
Cycle 0: max grad = 3.067236e-01 ; sigma = 0.000000e+00
Cycle 1: max grad = 5.992311e-04 ; sigma = 1.169371e-01
Cycle 2: max grad = 2.250365e-06 ; sigma = 4.611400e-06
Cycle 3: max grad = 9.943609e-07 ; sigma = 9.080736e-12
Product_state fixed-point CI iteration converged after 3 cycles
Entering product-state fixed-point CI iteration
Cycle 0: max grad = 2.327562e-01 ; sigma = 0.000000e+00
Cycle 1: max grad = 5.648643e-04 ; sigma = 4.391494e-02
Cycle 2: max grad = 4.292256e-06 ; sigma = 2.400541e-06
Cycle 3: max grad = 8.594107e-07 ; sigma = 5.933032e-12
Product_state fixed-point CI iteration converged after 3 cycles
Entering product-state fixed-point CI iteration
Cycle 0: max grad = 3.083310e-01 ; sigma = 0.000000e+00
Cycle 1: max grad = 1.806373e-04 ; sigma = 5.815313e-03
Cycle 2: max grad = 3.471513e-06 ; sigma = 1.001354e-06
Cycle 3: max grad = 3.580480e-06 ; sigma = 1.041158e-10
Cycle 4: max grad = 1.643296e-06 ; sigma = 2.629008e-12
Product_state fixed-point CI iteration converged after 4 cycles
Entering product-state fixed-point CI iteration
Cycle 0: max grad = 2.551366e-01 ; sigma = 0.000000e+00
Cycle 1: max grad = 2.036378e-04 ; sigma = 8.150694e-02
Cycle 2: max grad = 1.928086e-06 ; sigma = 9.333423e-07
Cycle 3: max grad = 8.431799e-07 ; sigma = 2.671392e-10
Cycle 4: max grad = 4.869203e-07 ; sigma = 1.115552e-11
Product_state fixed-point CI iteration converged after 4 cycles
Entering product-state fixed-point CI iteration
Cycle 0: max grad = 3.077537e-01 ; sigma = 0.000000e+00
Cycle 1: max grad = 3.556113e-04 ; sigma = 3.436487e-02
Cycle 2: max grad = 1.955002e-06 ; sigma = 2.408482e-07
Cycle 3: max grad = 1.232657e-06 ; sigma = 1.875833e-11
Product_state fixed-point CI iteration converged after 3 cycles
Entering product-state fixed-point CI iteration
Cycle 0: max grad = 2.785850e-01 ; sigma = 0.000000e+00
Cycle 1: max grad = 4.595661e-05 ; sigma = 5.318012e-02
Cycle 2: max grad = 5.618072e-07 ; sigma = 5.927162e-08
Cycle 3: max grad = 7.166697e-10 ; sigma = 6.608047e-13
Product_state fixed-point CI iteration converged after 3 cycles
Entering product-state fixed-point CI iteration
Cycle 0: max grad = 3.067052e-01 ; sigma = 0.000000e+00
Cycle 1: max grad = 5.861469e-04 ; sigma = 1.170948e-01
Cycle 2: max grad = 2.135161e-06 ; sigma = 4.179263e-06
Cycle 3: max grad = 1.320258e-06 ; sigma = 9.016787e-12
Product_state fixed-point CI iteration converged after 3 cycles
Entering product-state fixed-point CI iteration
Cycle 0: max grad = 2.327512e-01 ; sigma = 0.000000e+00
Cycle 1: max grad = 5.626359e-04 ; sigma = 4.458519e-02
Cycle 2: max grad = 4.646999e-06 ; sigma = 4.939012e-06
Cycle 3: max grad = 6.020661e-07 ; sigma = 1.311662e-11
Product_state fixed-point CI iteration converged after 3 cycles
Entering product-state fixed-point CI iteration
Cycle 0: max grad = 3.083128e-01 ; sigma = 0.000000e+00
Cycle 1: max grad = 2.345229e-04 ; sigma = 5.828458e-03
Cycle 2: max grad = 5.566392e-06 ; sigma = 1.777866e-06
Cycle 3: max grad = 1.318146e-06 ; sigma = 3.041407e-10
Cycle 4: max grad = 1.083318e-06 ; sigma = 3.389289e-12
Product_state fixed-point CI iteration converged after 4 cycles
Entering product-state fixed-point CI iteration
Cycle 0: max grad = 2.550410e-01 ; sigma = 0.000000e+00
Cycle 1: max grad = 2.379875e-04 ; sigma = 8.171111e-02
Cycle 2: max grad = 1.927086e-06 ; sigma = 1.317811e-06
Cycle 3: max grad = 9.762213e-07 ; sigma = 3.389573e-10
Cycle 4: max grad = 5.648514e-07 ; sigma = 1.478995e-11
Product_state fixed-point CI iteration converged after 4 cycles
Entering product-state fixed-point CI iteration
Cycle 0: max grad = 3.077285e-01 ; sigma = 0.000000e+00
Cycle 1: max grad = 3.454360e-04 ; sigma = 3.460276e-02
Cycle 2: max grad = 2.317995e-06 ; sigma = 4.272844e-07
Cycle 3: max grad = 1.132493e-06 ; sigma = 8.860468e-12
Product_state fixed-point CI iteration converged after 3 cycles
Entering product-state fixed-point CI iteration
Cycle 0: max grad = 2.786705e-01 ; sigma = 0.000000e+00
Cycle 1: max grad = 4.651225e-05 ; sigma = 5.317862e-02
Cycle 2: max grad = 5.794670e-07 ; sigma = 6.407411e-08
Cycle 3: max grad = 6.451025e-10 ; sigma = 6.501466e-13
Product_state fixed-point CI iteration converged after 3 cycles
Entering product-state fixed-point CI iteration
Cycle 0: max grad = 3.067015e-01 ; sigma = 0.000000e+00
Cycle 1: max grad = 5.835233e-04 ; sigma = 1.171264e-01
Cycle 2: max grad = 2.112375e-06 ; sigma = 4.118257e-06
Cycle 3: max grad = 1.202589e-06 ; sigma = 7.389644e-12
Product_state fixed-point CI iteration converged after 3 cycles
Entering product-state fixed-point CI iteration
Cycle 0: max grad = 2.327502e-01 ; sigma = 0.000000e+00
Cycle 1: max grad = 5.629732e-04 ; sigma = 4.471923e-02
Cycle 2: max grad = 4.715402e-06 ; sigma = 5.349624e-06
Cycle 3: max grad = 5.617916e-07 ; sigma = 1.445954e-11
Product_state fixed-point CI iteration converged after 3 cycles
Entering product-state fixed-point CI iteration
Cycle 0: max grad = 3.083092e-01 ; sigma = 0.000000e+00
Cycle 1: max grad = 2.491446e-04 ; sigma = 5.831027e-03
Cycle 2: max grad = 6.002161e-06 ; sigma = 1.870328e-06
Cycle 3: max grad = 1.760538e-06 ; sigma = 3.921699e-10
Cycle 4: max grad = 1.220893e-06 ; sigma = 1.053024e-11
Product_state fixed-point CI iteration converged after 4 cycles
Entering product-state fixed-point CI iteration
Cycle 0: max grad = 2.550219e-01 ; sigma = 0.000000e+00
Cycle 1: max grad = 2.449739e-04 ; sigma = 8.175297e-02
Cycle 2: max grad = 1.955722e-06 ; sigma = 1.402521e-06
Cycle 3: max grad = 1.005238e-06 ; sigma = 3.552252e-10
Cycle 4: max grad = 5.831845e-07 ; sigma = 1.566747e-11
Product_state fixed-point CI iteration converged after 4 cycles
Entering product-state fixed-point CI iteration
Cycle 0: max grad = 3.077235e-01 ; sigma = 0.000000e+00
Cycle 1: max grad = 3.433519e-04 ; sigma = 3.465135e-02
Cycle 2: max grad = 2.389028e-06 ; sigma = 4.710340e-07
Cycle 3: max grad = 1.062282e-06 ; sigma = 6.551204e-12
Product_state fixed-point CI iteration converged after 3 cycles
Entering product-state fixed-point CI iteration
Cycle 0: max grad = 2.786876e-01 ; sigma = 0.000000e+00
Cycle 1: max grad = 4.673089e-05 ; sigma = 5.317831e-02
Cycle 2: max grad = 5.829607e-07 ; sigma = 6.504438e-08
Cycle 3: max grad = 6.311489e-10 ; sigma = 6.465939e-13
Product_state fixed-point CI iteration converged after 3 cycles
Entering product-state fixed-point CI iteration
Cycle 0: max grad = 3.067125e-01 ; sigma = 0.000000e+00
Cycle 1: max grad = 5.913872e-04 ; sigma = 1.170316e-01
Cycle 2: max grad = 2.179901e-06 ; sigma = 4.326966e-06
Cycle 3: max grad = 2.905984e-07 ; sigma = 7.268852e-12
Product_state fixed-point CI iteration converged after 3 cycles
Entering product-state fixed-point CI iteration
Cycle 0: max grad = 2.327532e-01 ; sigma = 0.000000e+00
Cycle 1: max grad = 5.619537e-04 ; sigma = 4.431709e-02
Cycle 2: max grad = 4.507687e-06 ; sigma = 4.019992e-06
Cycle 3: max grad = 6.936838e-07 ; sigma = 1.058709e-11
Product_state fixed-point CI iteration converged after 3 cycles
Entering product-state fixed-point CI iteration
Cycle 0: max grad = 3.083201e-01 ; sigma = 0.000000e+00
Cycle 1: max grad = 2.055908e-04 ; sigma = 5.823260e-03
Cycle 2: max grad = 4.711353e-06 ; sigma = 1.531161e-06
Cycle 3: max grad = 2.353117e-06 ; sigma = 2.384013e-10
Cycle 4: max grad = 1.042747e-06 ; sigma = 9.166001e-12
Product_state fixed-point CI iteration converged after 4 cycles
Entering product-state fixed-point CI iteration
Cycle 0: max grad = 2.550792e-01 ; sigma = 0.000000e+00
Cycle 1: max grad = 2.241311e-04 ; sigma = 8.162841e-02
Cycle 2: max grad = 1.913730e-06 ; sigma = 1.156262e-06
Cycle 3: max grad = 9.208399e-07 ; sigma = 3.084430e-10
Cycle 4: max grad = 5.292846e-07 ; sigma = 1.305267e-11
Product_state fixed-point CI iteration converged after 4 cycles
Entering product-state fixed-point CI iteration
Cycle 0: max grad = 3.077386e-01 ; sigma = 0.000000e+00
Cycle 1: max grad = 3.495559e-04 ; sigma = 3.450660e-02
Cycle 2: max grad = 2.174276e-06 ; sigma = 3.461726e-07
Cycle 3: max grad = 1.213587e-06 ; sigma = 1.324452e-11
Product_state fixed-point CI iteration converged after 3 cycles
Entering product-state fixed-point CI iteration
Cycle 0: max grad = 2.786363e-01 ; sigma = 0.000000e+00
Cycle 1: max grad = 4.607566e-05 ; sigma = 5.317923e-02
Cycle 2: max grad = 5.724407e-07 ; sigma = 6.214306e-08
Cycle 3: max grad = 6.733784e-10 ; sigma = 6.892265e-13
Product_state fixed-point CI iteration converged after 3 cycles
Entering product-state fixed-point CI iteration
Cycle 0: max grad = 2.327602e-01 ; sigma = 0.000000e+00
Cycle 1: max grad = 6.209126e-04 ; sigma = 4.337872e-02
Cycle 2: max grad = 3.992423e-06 ; sigma = 1.978466e-07
Cycle 3: max grad = 1.137854e-06 ; sigma = 3.957723e-12
Product_state fixed-point CI iteration converged after 3 cycles
Entering product-state fixed-point CI iteration
Cycle 0: max grad = 3.077738e-01 ; sigma = 0.000000e+00
Cycle 1: max grad = 3.634427e-04 ; sigma = 3.418067e-02
Cycle 2: max grad = 3.346335e-06 ; sigma = 1.317946e-07
Cycle 3: max grad = 4.962140e-07 ; sigma = 9.599432e-12
Product_state fixed-point CI iteration converged after 3 cycles
Entering product-state fixed-point CI iteration
Cycle 0: max grad = 2.785166e-01 ; sigma = 0.000000e+00
Cycle 1: max grad = 4.605856e-05 ; sigma = 5.318129e-02
Cycle 2: max grad = 5.474639e-07 ; sigma = 5.549293e-08
Cycle 3: max grad = 7.759515e-10 ; sigma = 5.684342e-13
Product_state fixed-point CI iteration converged after 3 cycles
LASSCF state-average energy = -3971.89018525224
LASSCF state 0 energy = -3971.89018525224
LASSCF state 1 energy = -3971.89049467745
LASSCF state 2 energy = -3971.8906273398
LASSCF state 3 energy = -3971.89058311557
LASSCF state 4 energy = -3971.89036204604
LASSCF state 5 energy = -3969.48093908276
LASSCF state 6 energy = -3970.98995513759
LASSCF state 7 energy = -3969.569277641
LASSCF state 8 energy = -3971.5111195471
LASSCF state 9 energy = -3969.35032714229
LASSCF state 10 energy = -3971.64263382622
LASSCF state 11 energy = -3969.48199401442
LASSCF state 12 energy = -3970.99011278563
LASSCF state 13 energy = -3969.56971596364
LASSCF state 14 energy = -3971.51146460594
LASSCF state 15 energy = -3969.3507335344
LASSCF state 16 energy = -3971.64312475168
LASSCF state 17 energy = -3969.48258018069
LASSCF state 18 energy = -3970.99014433942
LASSCF state 19 energy = -3969.56980395116
LASSCF state 20 energy = -3971.51153490949
LASSCF state 21 energy = -3969.35081586567
LASSCF state 22 energy = -3971.64322411903
LASSCF state 23 energy = -3969.48269742185
LASSCF state 24 energy = -3970.99004970236
LASSCF state 25 energy = -3969.56954031213
LASSCF state 26 energy = -3971.51132530586
LASSCF state 27 energy = -3969.35056993026
LASSCF state 28 energy = -3971.64292719394
LASSCF state 29 energy = -3969.48234570627
LASSCF state 30 energy = -3969.56892890982
LASSCF state 31 energy = -3971.64224828029
LASSCF state 32 energy = -3969.48152512913
Entering product-state fixed-point CI iteration
Cycle 0: max grad = 2.386726e+02 ; sigma = 0.000000e+00
Cycle 1: max grad = 5.708112e-07 ; sigma = 6.264145e-11
Product_state fixed-point CI iteration converged after 1 cycles
Entering product-state fixed-point CI iteration
Cycle 0: max grad = 2.386946e+02 ; sigma = 0.000000e+00
Cycle 1: max grad = 7.152934e-07 ; sigma = 5.962164e-11
Product_state fixed-point CI iteration converged after 1 cycles
Entering product-state fixed-point CI iteration
Cycle 0: max grad = 2.387044e+02 ; sigma = 0.000000e+00
Cycle 1: max grad = 8.578472e-07 ; sigma = 5.837819e-11
Product_state fixed-point CI iteration converged after 1 cycles
Entering product-state fixed-point CI iteration
Cycle 0: max grad = 2.387011e+02 ; sigma = 0.000000e+00
Cycle 1: max grad = 8.119130e-07 ; sigma = 5.876188e-11
Product_state fixed-point CI iteration converged after 1 cycles
Entering product-state fixed-point CI iteration
Cycle 0: max grad = 2.386851e+02 ; sigma = 0.000000e+00
Cycle 1: max grad = 5.769212e-07 ; sigma = 6.090772e-11
Product_state fixed-point CI iteration converged after 1 cycles
Entering product-state fixed-point CI iteration
Cycle 0: max grad = 5.539587e+01 ; sigma = 0.000000e+00
Cycle 1: max grad = 1.691991e-11 ; sigma = 7.105427e-15
Product_state fixed-point CI iteration converged after 1 cycles
Entering product-state fixed-point CI iteration
Cycle 0: max grad = 2.131720e+02 ; sigma = 0.000000e+00
Cycle 1: max grad = 1.147076e-06 ; sigma = 9.236345e-11
Product_state fixed-point CI iteration converged after 1 cycles
Entering product-state fixed-point CI iteration
Cycle 0: max grad = 5.666568e+01 ; sigma = 0.000000e+00
Cycle 1: max grad = 1.126929e-06 ; sigma = 6.575718e-11
Product_state fixed-point CI iteration converged after 1 cycles
Entering product-state fixed-point CI iteration
Cycle 0: max grad = 1.014370e+02 ; sigma = 0.000000e+00
Cycle 1: max grad = 1.890085e-04 ; sigma = 1.180172e-03
Cycle 2: max grad = 1.276217e-06 ; sigma = 1.799027e-07
Cycle 3: max grad = 1.026039e-06 ; sigma = 1.473666e-11
Product_state fixed-point CI iteration converged after 3 cycles
Entering product-state fixed-point CI iteration
Cycle 0: max grad = 1.006586e+02 ; sigma = 0.000000e+00
Cycle 1: max grad = 1.822861e-04 ; sigma = 1.215504e-03
Cycle 2: max grad = 1.373116e-06 ; sigma = 4.568982e-07
Cycle 3: max grad = 2.083542e-06 ; sigma = 2.468781e-11
Product_state fixed-point CI iteration converged after 3 cycles
Entering product-state fixed-point CI iteration
Cycle 0: max grad = 1.829074e+02 ; sigma = 0.000000e+00
Cycle 1: max grad = 3.721499e-07 ; sigma = 3.274181e-11
Product_state fixed-point CI iteration converged after 1 cycles
Entering product-state fixed-point CI iteration
Cycle 0: max grad = 5.540134e+01 ; sigma = 0.000000e+00
Cycle 1: max grad = 1.601945e-11 ; sigma = 3.552714e-14
Product_state fixed-point CI iteration converged after 1 cycles
Entering product-state fixed-point CI iteration
Cycle 0: max grad = 2.130581e+02 ; sigma = 0.000000e+00
Cycle 1: max grad = 1.104956e-06 ; sigma = 9.021051e-11
Product_state fixed-point CI iteration converged after 1 cycles
Entering product-state fixed-point CI iteration
Cycle 0: max grad = 5.659853e+01 ; sigma = 0.000000e+00
Cycle 1: max grad = 2.431926e-06 ; sigma = 8.417445e-11
Product_state fixed-point CI iteration converged after 1 cycles
Entering product-state fixed-point CI iteration
Cycle 0: max grad = 1.829625e+02 ; sigma = 0.000000e+00
Cycle 1: max grad = 1.581924e-04 ; sigma = 1.431940e-03
Cycle 2: max grad = 1.850907e-06 ; sigma = 5.088201e-07
Cycle 3: max grad = 2.061901e-06 ; sigma = 3.034870e-10
Cycle 4: max grad = 8.833875e-07 ; sigma = 1.348610e-11
Product_state fixed-point CI iteration converged after 4 cycles
Entering product-state fixed-point CI iteration
Cycle 0: max grad = 9.833649e+01 ; sigma = 0.000000e+00
Cycle 1: max grad = 1.651577e-04 ; sigma = 1.541943e-03
Cycle 2: max grad = 1.817346e-06 ; sigma = 2.170348e-07
Cycle 3: max grad = 1.401408e-06 ; sigma = 2.022560e-11
Product_state fixed-point CI iteration converged after 3 cycles
Entering product-state fixed-point CI iteration
Cycle 0: max grad = 5.537728e+01 ; sigma = 0.000000e+00
Cycle 1: max grad = 1.526676e-06 ; sigma = 2.371792e-11
Product_state fixed-point CI iteration converged after 1 cycles
Entering product-state fixed-point CI iteration
Cycle 0: max grad = 5.540438e+01 ; sigma = 0.000000e+00
Cycle 1: max grad = 1.561591e-11 ; sigma = 4.618528e-14
Product_state fixed-point CI iteration converged after 1 cycles
Entering product-state fixed-point CI iteration
Cycle 0: max grad = 2.130384e+02 ; sigma = 0.000000e+00
Cycle 1: max grad = 8.037424e-07 ; sigma = 7.746337e-11
Product_state fixed-point CI iteration converged after 1 cycles
Entering product-state fixed-point CI iteration
Cycle 0: max grad = 5.658524e+01 ; sigma = 0.000000e+00
Cycle 1: max grad = 3.074498e-06 ; sigma = 9.193002e-11
Product_state fixed-point CI iteration converged after 1 cycles
Entering product-state fixed-point CI iteration
Cycle 0: max grad = 1.829779e+02 ; sigma = 0.000000e+00
Cycle 1: max grad = 1.523149e-04 ; sigma = 1.484257e-03
Cycle 2: max grad = 2.099073e-06 ; sigma = 8.706578e-07
Cycle 3: max grad = 2.415364e-06 ; sigma = 7.650840e-10
Cycle 4: max grad = 1.091193e-06 ; sigma = 2.550138e-11
Product_state fixed-point CI iteration converged after 4 cycles
Entering product-state fixed-point CI iteration
Cycle 0: max grad = 9.786583e+01 ; sigma = 0.000000e+00
Cycle 1: max grad = 1.618714e-04 ; sigma = 1.608640e-03
Cycle 2: max grad = 1.155243e-06 ; sigma = 1.826356e-07
Cycle 3: max grad = 1.276857e-06 ; sigma = 1.813660e-11
Product_state fixed-point CI iteration converged after 3 cycles
Entering product-state fixed-point CI iteration
Cycle 0: max grad = 5.537773e+01 ; sigma = 0.000000e+00
Cycle 1: max grad = 9.380896e-07 ; sigma = 2.184919e-11
Product_state fixed-point CI iteration converged after 1 cycles
Entering product-state fixed-point CI iteration
Cycle 0: max grad = 5.540499e+01 ; sigma = 0.000000e+00
Cycle 1: max grad = 1.554466e-11 ; sigma = 4.618528e-14
Product_state fixed-point CI iteration converged after 1 cycles
Entering product-state fixed-point CI iteration
Cycle 0: max grad = 2.131026e+02 ; sigma = 0.000000e+00
Cycle 1: max grad = 1.214370e-06 ; sigma = 1.215739e-11
Product_state fixed-point CI iteration converged after 1 cycles
Entering product-state fixed-point CI iteration
Cycle 0: max grad = 5.662526e+01 ; sigma = 0.000000e+00
Cycle 1: max grad = 7.594765e-07 ; sigma = 7.341683e-11
Product_state fixed-point CI iteration converged after 1 cycles
Entering product-state fixed-point CI iteration
Cycle 0: max grad = 1.829269e+02 ; sigma = 0.000000e+00
Cycle 1: max grad = 1.701132e-04 ; sigma = 1.329262e-03
Cycle 2: max grad = 8.392532e-07 ; sigma = 9.443068e-08
Cycle 3: max grad = 1.267983e-06 ; sigma = 2.206946e-11
Product_state fixed-point CI iteration converged after 3 cycles
Entering product-state fixed-point CI iteration
Cycle 0: max grad = 9.927190e+01 ; sigma = 0.000000e+00
Cycle 1: max grad = 1.718660e-04 ; sigma = 1.409890e-03
Cycle 2: max grad = 2.002561e-06 ; sigma = 2.990403e-07
Cycle 3: max grad = 1.647486e-06 ; sigma = 2.220446e-11
Product_state fixed-point CI iteration converged after 3 cycles
Entering product-state fixed-point CI iteration
Cycle 0: max grad = 1.829645e+02 ; sigma = 0.000000e+00
Cycle 1: max grad = 5.379093e-07 ; sigma = 2.750511e-11
Product_state fixed-point CI iteration converged after 1 cycles
Entering product-state fixed-point CI iteration
Cycle 0: max grad = 5.540316e+01 ; sigma = 0.000000e+00
Cycle 1: max grad = 1.576863e-11 ; sigma = 1.563194e-13
Product_state fixed-point CI iteration converged after 1 cycles
Entering product-state fixed-point CI iteration
Cycle 0: max grad = 5.672001e+01 ; sigma = 0.000000e+00
Cycle 1: max grad = 1.705338e-06 ; sigma = 6.848921e-11
Product_state fixed-point CI iteration converged after 1 cycles
Entering product-state fixed-point CI iteration
Cycle 0: max grad = 1.827944e+02 ; sigma = 0.000000e+00
Cycle 1: max grad = 6.033758e-07 ; sigma = 1.077183e-11
Product_state fixed-point CI iteration converged after 1 cycles
Entering product-state fixed-point CI iteration
Cycle 0: max grad = 5.539891e+01 ; sigma = 0.000000e+00
Cycle 1: max grad = 1.639844e-11 ; sigma = 7.105427e-15
Product_state fixed-point CI iteration converged after 1 cycles
LASSCF state-average energy = -3971.8901852523
LASSCF state 0 energy = -3971.8901852523
LASSCF state 1 energy = -3971.89049467751
LASSCF state 2 energy = -3971.89062733986
LASSCF state 3 energy = -3971.89058311563
LASSCF state 4 energy = -3971.89036204611
LASSCF state 5 energy = -3969.48093908276
LASSCF state 6 energy = -3970.98995513768
LASSCF state 7 energy = -3969.56927764107
LASSCF state 8 energy = -3971.51229990124
LASSCF state 9 energy = -3969.3515431036
LASSCF state 10 energy = -3971.64263382626
LASSCF state 11 energy = -3969.48199401442
LASSCF state 12 energy = -3970.99011278572
LASSCF state 13 energy = -3969.56971596372
LASSCF state 14 energy = -3971.51289705143
LASSCF state 15 energy = -3969.35227569479
LASSCF state 16 energy = -3971.6431247517
LASSCF state 17 energy = -3969.48258018069
LASSCF state 18 energy = -3970.9901443395
LASSCF state 19 energy = -3969.56980395125
LASSCF state 20 energy = -3971.51302003555
LASSCF state 21 energy = -3969.35242468792
LASSCF state 22 energy = -3971.64322411905
LASSCF state 23 energy = -3969.48269742185
LASSCF state 24 energy = -3970.99004970238
LASSCF state 25 energy = -3969.56954031221
LASSCF state 26 energy = -3971.51265466071
LASSCF state 27 energy = -3969.35198011901
LASSCF state 28 energy = -3971.64292719396
LASSCF state 29 energy = -3969.48234570627
LASSCF state 30 energy = -3969.56892890989
LASSCF state 31 energy = -3971.6422482803
LASSCF state 32 energy = -3969.48152512913
LASSI op_o0 memory check: 95048.118144 MB needed of 120101.76512 MB available (128000 MB max)
Symmetry analysis of 33 LAS rootspaces:
 ix            Energy  <S**2>  Neleca  Nelecb  Nelec   Wfnsym
  0  -3971.8901852523   4.750       6       5      11       A
  1  -3971.8904946775  11.750       6       5      11       A
  2  -3971.8906273399  14.750       6       5      11       A
  3  -3971.8905831156  13.750       6       5      11       A
  4  -3971.8903620461   8.750       6       5      11       A
  5  -3969.4809390828   5.750       6       5      11       A
  6  -3970.9899551377   3.750       6       5      11       A
  7  -3969.5692776411   8.750       6       5      11       A
  8  -3971.5122999012   3.750       6       5      11       A
  9  -3969.3515431036   9.750       6       5      11       A
 10  -3971.6426338263   8.750       6       5      11       A
 11  -3969.4819940144  14.750       6       5      11       A
 12  -3970.9901127857   8.750       6       5      11       A
 13  -3969.5697159637  13.750       6       5      11       A
 14  -3971.5128970514   8.750       6       5      11       A
 15  -3969.3522756948  14.750       6       5      11       A
 16  -3971.6431247517  13.750       6       5      11       A
 17  -3969.4825801807  19.750       6       5      11       A
 18  -3970.9901443395   9.750       6       5      11       A
 19  -3969.5698039513  14.750       6       5      11       A
 20  -3971.5130200355   9.750       6       5      11       A
 21  -3969.3524246879  15.750       6       5      11       A
 22  -3971.6432241191  14.750       6       5      11       A
 23  -3969.4826974219  20.750       6       5      11       A
 24  -3970.9900497024   6.750       6       5      11       A
 25  -3969.5695403122  11.750       6       5      11       A
 26  -3971.5126546607   6.750       6       5      11       A
 27  -3969.3519801190  12.750       6       5      11       A
 28  -3971.6429271940  11.750       6       5      11       A
 29  -3969.4823457063  17.750       6       5      11       A
 30  -3969.5689289099   4.750       6       5      11       A
 31  -3971.6422482803   4.750       6       5      11       A
 32  -3969.4815251291  10.750       6       5      11       A
Build + diag H matrix LASSI symmetry block 0
['neleca', 'nelecb', 'irrep'] = (6, 5, 0)
(33 rootspaces; 297 states)
LASSI eigenvalues (297 total):
 ix            Energy  <S**2>  Neleca  Nelecb  Wfnsym
  0  -3971.8911568633  24.750       6       5       A
  1  -3971.8909597165  15.749       6       5       A
  2  -3971.8908079004   8.747       6       5       A
  3  -3971.8906999690   3.744       6       5       A
  4  -3971.8906324690   0.760       6       5       A
  5  -3971.8712198906  24.750       6       5       A
  6  -3971.8707636357  15.750       6       5       A
  7  -3971.8704096930   8.750       6       5       A
  8  -3971.8701573157   3.750       6       5       A
  9  -3971.8700054940   0.750       6       5       A
 10  -3971.8698616022  24.750       6       5       A
 11  -3971.8692581067  15.750       6       5       A
 12  -3971.8687891201   8.750       6       5       A
 13  -3971.8684543371   3.750       6       5       A
 14  -3971.8682535780   0.750       6       5       A
 15  -3971.6441338299  24.749       6       5       A
 16  -3971.6432664463  15.749       6       5       A
 17  -3971.6426014783   8.749       6       5       A
 18  -3971.6421319879   3.749       6       5       A
 19  -3971.6418453251   0.754       6       5       A
 20  -3971.6417406356  24.750       6       5       A
 21  -3971.6405556850  15.750       6       5       A
 22  -3971.6396330049   8.750       6       5       A
 23  -3971.6389733870   3.750       6       5       A
 24  -3971.6385773620   0.750       6       5       A
 25  -3971.6360394509  24.750       6       5       A
 26  -3971.6347183815  15.750       6       5       A
 27  -3971.6336909219   8.750       6       5       A
 28  -3971.6329570670   3.750       6       5       A
 29  -3971.6325163615   0.750       6       5       A
 30  -3971.5137655922  15.750       6       5       A
 31  -3971.5128950791   8.749       6       5       A
 32  -3971.5122962530   3.750       6       5       A
 33  -3971.5119410163   0.751       6       5       A
 34  -3971.5117991162  15.749       6       5       A
 35  -3971.5115006649  15.750       6       5       A
 36  -3971.5111771201   8.749       6       5       A
 37  -3971.5107409236   3.750       6       5       A
 38  -3971.5104797621   0.751       6       5       A
 39  -3971.5102215301   8.750       6       5       A
 40  -3971.5098190615  15.750       6       5       A
 41  -3971.5095149278  15.750       6       5       A
 42  -3971.5093480323   3.750       6       5       A
 43  -3971.5090161300   8.749       6       5       A
 44  -3971.5088402314   0.750       6       5       A
 45  -3971.5088210909   8.750       6       5       A
 46  -3971.5084475654   3.750       6       5       A
 47  -3971.5083196792   3.749       6       5       A
 48  -3971.5081146432   0.751       6       5       A
 49  -3971.5080025185   0.751       6       5       A
 50  -3971.5076076906  15.750       6       5       A
 51  -3971.5065456027   8.750       6       5       A
 52  -3971.5057494842   3.750       6       5       A
 53  -3971.5055109724  15.750       6       5       A
 54  -3971.5052545806   0.750       6       5       A
 55  -3971.5042032998   8.750       6       5       A
 56  -3971.5035085163  15.750       6       5       A
 57  -3971.5033083229   3.750       6       5       A
 58  -3971.5027865880   0.750       6       5       A
 59  -3971.5027431555   8.750       6       5       A
 60  -3971.5022001127   3.750       6       5       A
 61  -3971.5018726107   0.751       6       5       A
 62  -3971.5016634117  15.750       6       5       A
 63  -3971.5005651223   8.750       6       5       A
 64  -3971.4997444180   3.750       6       5       A
 65  -3971.4992342795   0.750       6       5       A
 66  -3970.9897490303  15.750       6       5       A
 67  -3970.9890731263   8.750       6       5       A
 68  -3970.9886640975  15.750       6       5       A
 69  -3970.9885903817   3.750       6       5       A
 70  -3970.9883010175   0.750       6       5       A
 71  -3970.9879406959   8.750       6       5       A
 72  -3970.9874237977   3.750       6       5       A
 73  -3970.9871141191   0.750       6       5       A
 74  -3970.9782331224  15.750       6       5       A
 75  -3970.9778646149   8.750       6       5       A
 76  -3970.9776014109   3.750       6       5       A
 77  -3970.9774434647   0.750       6       5       A
 78  -3970.9767373158  15.750       6       5       A
 79  -3970.9763361974   8.750       6       5       A
 80  -3970.9760497452   3.750       6       5       A
 81  -3970.9758778053   0.750       6       5       A
 82  -3970.9635068475  15.750       6       5       A
 83  -3970.9629494782   8.750       6       5       A
 84  -3970.9625515350   3.750       6       5       A
 85  -3970.9623124155   0.750       6       5       A
 86  -3970.9512969702  15.750       6       5       A
 87  -3970.9499313989   8.750       6       5       A
 88  -3970.9489560059   3.750       6       5       A
 89  -3970.9483708140   0.750       6       5       A
 90  -3970.9244649237  15.750       6       5       A
 91  -3970.9241534402   8.750       6       5       A
 92  -3970.9239309535   3.750       6       5       A
 93  -3970.9237973845   0.750       6       5       A
 94  -3970.9233640619  15.750       6       5       A
 95  -3970.9229610955   8.750       6       5       A
 96  -3970.9226732787   3.750       6       5       A
 97  -3970.9225004575   0.750       6       5       A
 98  -3970.8976172681  15.750       6       5       A
 99  -3970.8962426667   8.750       6       5       A
Remaining 197 eigenvalues truncated; increase verbosity to print them all
Natural-orbital analysis for state(s) [0, 1, 2, 3, 4]
LASSI op_o0 memory check: 95048.118144 MB needed of 119768.895488 MB available (128000 MB max)
Delocalized natural orbitals do not reflect LAS fragmentation
Natural occ [1.98741485 1.01353109 1.00320315 1.00262952 0.99788033 0.99776448
 0.99633368 0.99134944 0.99078468 0.98032716 0.0119322  0.00422579
 0.00406734 0.00389366 0.00347572 0.00229116 0.0022826  0.00226771
 0.00223647 0.00210898]
Natural orbital (expansion on AOs) in CAS space
               #1        #2        #3        #4        #5       
0 O 1s          -0.00011  -0.00023   0.00028   0.00009   0.00000
0 O 2s           0.00162   0.00081   0.00205  -0.00039  -0.00041
0 O 3s           0.00058   0.00033   0.00052  -0.00017  -0.00013
0 O 4s           0.00472   0.00431  -0.00202  -0.00050  -0.00046
0 O 2px          0.00482  -0.00069   0.00581   0.00008   0.00026
0 O 2py          0.00050  -0.00160   0.00137   0.00158  -0.00000
0 O 2pz          0.00210   0.00157  -0.00223  -0.00149  -0.00052
0 O 3px          0.00575  -0.00063   0.00697   0.00030   0.00040
0 O 3py          0.00042  -0.00166   0.00134   0.00156  -0.00017
0 O 3pz          0.00277   0.00178  -0.00266  -0.00167  -0.00057
0 O 4px          0.00798  -0.00113   0.00726  -0.00025   0.00009
0 O 4py          0.00006  -0.00376   0.00272   0.00368   0.00072
0 O 4pz          0.00391   0.00242  -0.00184  -0.00348  -0.00086
0 O 3dxy         0.00012   0.00002   0.00002  -0.00005   0.00000
0 O 3dyz         0.00007   0.00001   0.00006   0.00001  -0.00001
0 O 3dz^2       -0.00003   0.00002  -0.00007  -0.00002  -0.00001
0 O 3dxz        -0.00004   0.00002   0.00002   0.00002   0.00001
0 O 3dx2-y2      0.00003   0.00003  -0.00006  -0.00003  -0.00003
0 O 4dxy         0.00025  -0.00013  -0.00021  -0.00011   0.00009
0 O 4dyz         0.00011   0.00019   0.00024   0.00003  -0.00004
0 O 4dz^2       -0.00016  -0.00014  -0.00016   0.00011   0.00001
0 O 4dxz         0.00016  -0.00007   0.00038  -0.00004  -0.00008
0 O 4dx2-y2     -0.00017   0.00002  -0.00015   0.00004   0.00000
0 O 4f-3         0.00003   0.00003  -0.00000  -0.00004   0.00001
0 O 4f-2         0.00003   0.00001  -0.00006  -0.00003  -0.00001
0 O 4f-1        -0.00001   0.00002   0.00005  -0.00001  -0.00001
0 O 4f+0         0.00001   0.00000   0.00006   0.00002  -0.00000
0 O 4f+1        -0.00001   0.00001  -0.00003   0.00001   0.00001
0 O 4f+2         0.00001  -0.00002   0.00009   0.00003  -0.00001
0 O 4f+3         0.00003   0.00000  -0.00006  -0.00003   0.00000
1 O 1s           0.00030   0.00005   0.00021   0.00018   0.00001
1 O 2s           0.00701  -0.00799  -0.00232  -0.00078   0.00317
1 O 3s           0.00197  -0.00230  -0.00077  -0.00036   0.00092
1 O 4s           0.01136  -0.01555  -0.00747  -0.00408   0.00532
1 O 2px         -0.00512  -0.00786  -0.00403   0.00546   0.00250
1 O 2py         -0.00716  -0.00519   0.00661   0.00823   0.00051
1 O 2pz         -0.00508   0.00953  -0.00855  -0.00294  -0.00239
1 O 3px         -0.00578  -0.01031  -0.00509   0.00710   0.00314
1 O 3py         -0.00801  -0.00666   0.00819   0.00994   0.00079
1 O 3pz         -0.00618   0.01253  -0.01053  -0.00390  -0.00312
1 O 4px         -0.01094  -0.01159  -0.00479   0.00578   0.00371
1 O 4py         -0.01192  -0.00828   0.00569   0.01142   0.00107
1 O 4pz         -0.00728   0.01408  -0.01297  -0.00249  -0.00330
1 O 3dxy         0.00023   0.00002  -0.00045  -0.00029   0.00004
1 O 3dyz        -0.00086  -0.00008   0.00020   0.00037  -0.00004
1 O 3dz^2       -0.00067   0.00026  -0.00052  -0.00002  -0.00003
1 O 3dxz         0.00003  -0.00041  -0.00013   0.00001   0.00012
1 O 3dx2-y2      0.00051   0.00031   0.00014  -0.00026  -0.00006
1 O 4dxy         0.00037  -0.00006  -0.00116  -0.00099   0.00013
1 O 4dyz        -0.00243  -0.00025   0.00051   0.00093  -0.00011
1 O 4dz^2       -0.00270   0.00067  -0.00185  -0.00000  -0.00003
1 O 4dxz        -0.00054  -0.00101  -0.00005   0.00029   0.00026
1 O 4dx2-y2      0.00214   0.00098   0.00091  -0.00104  -0.00017
1 O 4f-3         0.00024   0.00013   0.00005  -0.00022  -0.00004
1 O 4f-2        -0.00012  -0.00018   0.00009   0.00016   0.00005
1 O 4f-1         0.00007   0.00018  -0.00031  -0.00007  -0.00002
1 O 4f+0         0.00040  -0.00004   0.00008  -0.00009   0.00001
1 O 4f+1        -0.00010   0.00012   0.00005   0.00005  -0.00003
1 O 4f+2         0.00014  -0.00008  -0.00016  -0.00011   0.00002
1 O 4f+3        -0.00006   0.00002   0.00023   0.00010  -0.00001
2 C 1s          -0.00025   0.00009   0.00045   0.00029   0.00004
2 C 2s          -0.00602   0.00059   0.00506   0.00407  -0.00051
2 C 3s          -0.00881  -0.00221   0.00797   0.00338  -0.00016
2 C 2px         -0.01695  -0.00074  -0.00296   0.00596  -0.00024
2 C 2py          0.00310  -0.00353  -0.00479  -0.00252   0.00194
2 C 2pz         -0.00536  -0.00054  -0.00952  -0.00096   0.00075
2 C 3px         -0.01329   0.00057  -0.00427   0.00166  -0.00038
2 C 3py         -0.00033  -0.00345  -0.00185   0.00301   0.00073
2 C 3pz         -0.00495  -0.00101  -0.00519   0.00210   0.00058
2 C 3dxy         0.00216  -0.00000   0.00118  -0.00058   0.00003
2 C 3dyz         0.00084  -0.00037   0.00133   0.00019  -0.00001
2 C 3dz^2        0.00095  -0.00138   0.00102   0.00064   0.00037
2 C 3dxz        -0.00032   0.00106  -0.00024  -0.00053  -0.00025
2 C 3dx2-y2     -0.00061  -0.00208   0.00026   0.00141   0.00049
3 H 1s           0.00145  -0.00483   0.00216   0.00205   0.00132
3 H 2s           0.00141  -0.00545   0.00311   0.00199   0.00160
3 H 2px         -0.00050   0.00000   0.00005   0.00015  -0.00001
3 H 2py          0.00000  -0.00012  -0.00008  -0.00015   0.00007
3 H 2pz         -0.00000  -0.00007  -0.00027  -0.00009   0.00003
4 O 1s           0.00022   0.00010  -0.00005   0.00002   0.00006
4 O 2s          -0.00066  -0.00527  -0.01147   0.00049  -0.03633
4 O 3s          -0.00032  -0.00156  -0.00314   0.00008  -0.01022
4 O 4s          -0.00335  -0.00844  -0.01725   0.00031  -0.05556
4 O 2px          0.00050  -0.00977   0.00365  -0.00819  -0.00440
4 O 2py          0.00085  -0.00251   0.01703  -0.00824   0.03845
4 O 2pz         -0.00017   0.00060  -0.01201   0.00463  -0.02710
4 O 3px          0.00072  -0.01205   0.00473  -0.01031  -0.00415
4 O 3py          0.00079  -0.00333   0.02224  -0.01089   0.04926
4 O 3pz         -0.00029   0.00068  -0.01603   0.00604  -0.03562
4 O 4px         -0.00075  -0.01060   0.00635  -0.00922   0.00059
4 O 4py          0.00444  -0.00294   0.02052  -0.00935   0.04828
4 O 4pz         -0.00156   0.00018  -0.01402   0.00504  -0.03618
4 O 3dxy         0.00002  -0.00041  -0.00020  -0.00023  -0.00110
4 O 3dyz        -0.00002  -0.00002  -0.00026   0.00006  -0.00065
4 O 3dz^2        0.00001  -0.00017  -0.00008  -0.00010  -0.00048
4 O 3dxz        -0.00004   0.00023   0.00009   0.00007   0.00050
4 O 3dx2-y2     -0.00007   0.00030  -0.00035   0.00030  -0.00038
4 O 4dxy        -0.00005  -0.00060  -0.00078  -0.00029  -0.00235
4 O 4dyz         0.00002   0.00033  -0.00047   0.00036  -0.00069
4 O 4dz^2       -0.00016  -0.00044  -0.00009  -0.00007  -0.00097
4 O 4dxz         0.00005   0.00066   0.00057   0.00001   0.00163
4 O 4dx2-y2      0.00002   0.00107  -0.00112   0.00125  -0.00114
4 O 4f-3        -0.00003   0.00016   0.00014   0.00003   0.00052
4 O 4f-2         0.00002  -0.00015   0.00011  -0.00013   0.00023
4 O 4f-1         0.00000  -0.00001  -0.00016   0.00003  -0.00037
4 O 4f+0         0.00001   0.00001   0.00002   0.00003   0.00001
4 O 4f+1        -0.00001   0.00019   0.00000   0.00008   0.00015
4 O 4f+2         0.00002  -0.00001  -0.00019   0.00008  -0.00049
4 O 4f+3         0.00005  -0.00020   0.00022  -0.00026   0.00034
5 O 1s          -0.00012   0.00024  -0.00012   0.00014  -0.00023
5 O 2s           0.00061   0.00052   0.00153  -0.00084   0.00277
5 O 3s           0.00023   0.00007   0.00046  -0.00027   0.00090
5 O 4s           0.00390  -0.00112   0.00428  -0.00183   0.00322
5 O 2px          0.00011  -0.00059   0.00192  -0.00186   0.00257
5 O 2py         -0.00131   0.00097   0.00067   0.00152   0.00267
5 O 2pz          0.00064   0.00214  -0.00184   0.00165  -0.00366
5 O 3px          0.00031  -0.00059   0.00197  -0.00215   0.00283
5 O 3py         -0.00167   0.00128   0.00020   0.00198   0.00271
5 O 3pz          0.00054   0.00258  -0.00193   0.00191  -0.00396
5 O 4px          0.00049  -0.00085   0.00360  -0.00345   0.00281
5 O 4py         -0.00209   0.00116   0.00203   0.00168   0.00431
5 O 4pz          0.00218   0.00367  -0.00267   0.00266  -0.00527
5 O 3dxy        -0.00000  -0.00003   0.00002  -0.00005   0.00001
5 O 3dyz         0.00002   0.00004   0.00003  -0.00001   0.00009
5 O 3dz^2       -0.00002  -0.00003  -0.00002  -0.00001   0.00002
5 O 3dxz         0.00002  -0.00002   0.00005   0.00001   0.00004
5 O 3dx2-y2      0.00000   0.00005  -0.00003   0.00001   0.00001
5 O 4dxy         0.00002  -0.00001  -0.00013   0.00018  -0.00072
5 O 4dyz         0.00016   0.00020   0.00021   0.00004   0.00070
5 O 4dz^2        0.00004   0.00014  -0.00029   0.00008  -0.00039
5 O 4dxz         0.00001   0.00008  -0.00003   0.00006   0.00021
5 O 4dx2-y2      0.00029   0.00014   0.00042  -0.00015   0.00063
5 O 4f-3        -0.00002  -0.00001  -0.00003  -0.00000  -0.00011
5 O 4f-2         0.00002   0.00005   0.00002   0.00001   0.00011
5 O 4f-1        -0.00000  -0.00002   0.00000  -0.00000  -0.00001
5 O 4f+0         0.00001  -0.00001   0.00005  -0.00003   0.00006
5 O 4f+1        -0.00001  -0.00003  -0.00004   0.00001  -0.00011
5 O 4f+2         0.00001   0.00003  -0.00003   0.00006  -0.00006
5 O 4f+3         0.00002   0.00002   0.00006  -0.00004   0.00015
6 C 1s           0.00007   0.00041  -0.00003  -0.00017   0.00063
6 C 2s           0.00002   0.00552   0.00157   0.00208   0.01161
6 C 3s          -0.00351   0.00242  -0.00068   0.00546   0.00536
6 C 2px          0.00057   0.00532   0.00600   0.00187   0.02126
6 C 2py          0.00048  -0.00765  -0.00155  -0.00399  -0.01446
6 C 2pz          0.00024  -0.00022   0.00201  -0.00106   0.00307
6 C 3px         -0.00101  -0.00065   0.00408  -0.00265   0.00522
6 C 3py          0.00241  -0.00163  -0.00352  -0.00255  -0.01109
6 C 3pz         -0.00070  -0.00047   0.00236   0.00053   0.00664
6 C 3dxy         0.00035  -0.00118   0.00064  -0.00117  -0.00031
6 C 3dyz        -0.00012   0.00044   0.00112  -0.00047   0.00346
6 C 3dz^2        0.00019  -0.00013  -0.00075   0.00011  -0.00211
6 C 3dxz         0.00014   0.00015  -0.00163   0.00067  -0.00329
6 C 3dx2-y2     -0.00017  -0.00058   0.00286  -0.00171   0.00676
7 H 1s           0.00020  -0.00028  -0.00742   0.00241  -0.01811
7 H 2s          -0.00131   0.00042  -0.00562   0.00367  -0.01324
7 H 2px          0.00011   0.00018   0.00004   0.00014   0.00045
7 H 2py          0.00003  -0.00021   0.00015  -0.00005  -0.00014
7 H 2pz         -0.00005  -0.00002  -0.00003  -0.00005  -0.00007
8 O 1s          -0.00007  -0.00032  -0.00028  -0.00006  -0.00040
8 O 2s          -0.00867  -0.00729   0.00043  -0.01233   0.00073
8 O 3s          -0.00262  -0.00192   0.00022  -0.00363   0.00033
8 O 4s          -0.02099  -0.01040   0.00078  -0.02008  -0.00005
8 O 2px          0.00509   0.00531   0.00824   0.00658   0.00741
8 O 2py          0.00914  -0.01063  -0.00368   0.00638  -0.00037
8 O 2pz         -0.00544   0.01003  -0.00799   0.00503   0.00425
8 O 3px          0.00596   0.00725   0.01002   0.00822   0.00850
8 O 3py          0.01047  -0.01389  -0.00453   0.00726  -0.00020
8 O 3pz         -0.00608   0.01343  -0.01021   0.00668   0.00477
8 O 4px          0.00474   0.00682   0.00945   0.00744   0.00947
8 O 4py          0.01332  -0.01468  -0.00619   0.00693  -0.00232
8 O 4pz         -0.01111   0.01193  -0.01238   0.00700   0.00668
8 O 3dxy         0.00032  -0.00052  -0.00033   0.00031  -0.00004
8 O 3dyz         0.00043  -0.00027  -0.00008   0.00013   0.00004
8 O 3dz^2       -0.00048   0.00007  -0.00063  -0.00014   0.00003
8 O 3dxz         0.00046   0.00028  -0.00040   0.00058   0.00008
8 O 3dx2-y2      0.00097   0.00015   0.00036   0.00065   0.00012
8 O 4dxy         0.00042  -0.00174  -0.00094   0.00090   0.00087
8 O 4dyz         0.00193  -0.00104  -0.00030   0.00044   0.00009
8 O 4dz^2       -0.00096   0.00048  -0.00255  -0.00007  -0.00032
8 O 4dxz         0.00100   0.00087  -0.00192   0.00148  -0.00034
8 O 4dx2-y2      0.00253   0.00059   0.00112   0.00173  -0.00032
8 O 4f-3         0.00054   0.00004   0.00021   0.00025   0.00022
8 O 4f-2         0.00009   0.00026  -0.00012   0.00021   0.00010
8 O 4f-1        -0.00029   0.00019  -0.00031   0.00007  -0.00008
8 O 4f+0        -0.00001   0.00002   0.00022  -0.00005   0.00000
8 O 4f+1        -0.00026  -0.00001   0.00005  -0.00012  -0.00014
8 O 4f+2        -0.00053   0.00019  -0.00005  -0.00007  -0.00003
8 O 4f+3        -0.00015   0.00030   0.00019  -0.00010  -0.00010
9 O 1s          -0.00012   0.00024  -0.00012  -0.00014   0.00023
9 O 2s           0.00061   0.00052   0.00153   0.00084  -0.00277
9 O 3s           0.00023   0.00007   0.00046   0.00027  -0.00090
9 O 4s           0.00390  -0.00112   0.00428   0.00184  -0.00322
9 O 2px         -0.00012  -0.00111   0.00237   0.00218  -0.00357
9 O 2py         -0.00108   0.00149   0.00022  -0.00184  -0.00167
9 O 2pz         -0.00098  -0.00155   0.00135   0.00060  -0.00340
9 O 3px          0.00009  -0.00122   0.00243   0.00251  -0.00391
9 O 3py         -0.00145   0.00191  -0.00025  -0.00234  -0.00164
9 O 3pz         -0.00103  -0.00188   0.00130   0.00064  -0.00362
9 O 4px         -0.00020  -0.00177   0.00427   0.00398  -0.00430
9 O 4py         -0.00140   0.00208   0.00137  -0.00221  -0.00281
9 O 4pz         -0.00272  -0.00284   0.00204   0.00106  -0.00527
9 O 3dxy        -0.00000  -0.00004   0.00002   0.00004   0.00001
9 O 3dyz        -0.00001  -0.00003  -0.00002  -0.00002   0.00009
9 O 3dz^2       -0.00001  -0.00004  -0.00001  -0.00001   0.00001
9 O 3dxz        -0.00002  -0.00003  -0.00004   0.00003   0.00004
9 O 3dx2-y2     -0.00001   0.00004  -0.00005  -0.00001   0.00003
9 O 4dxy        -0.00002  -0.00006  -0.00014  -0.00016   0.00073
9 O 4dyz        -0.00024  -0.00027  -0.00012   0.00008   0.00041
9 O 4dz^2       -0.00004   0.00006  -0.00031  -0.00005   0.00043
9 O 4dxz        -0.00009  -0.00007  -0.00028  -0.00007   0.00077
9 O 4dx2-y2      0.00022   0.00005   0.00034   0.00017  -0.00033
9 O 4f-3        -0.00002  -0.00002  -0.00003  -0.00001   0.00013
9 O 4f-2        -0.00000  -0.00004   0.00001   0.00000   0.00004
9 O 4f-1         0.00002   0.00001   0.00002  -0.00001  -0.00004
9 O 4f+0         0.00000   0.00002   0.00000  -0.00001  -0.00005
9 O 4f+1        -0.00001  -0.00002  -0.00007  -0.00004   0.00014
9 O 4f+2        -0.00003  -0.00005  -0.00002   0.00003   0.00008
9 O 4f+3         0.00001  -0.00001   0.00006   0.00006  -0.00012
10 O 1s          0.00022   0.00010  -0.00005  -0.00002  -0.00006
10 O 2s         -0.00066  -0.00527  -0.01147  -0.00049   0.03633
10 O 3s         -0.00032  -0.00156  -0.00314  -0.00008   0.01022
10 O 4s         -0.00335  -0.00845  -0.01725  -0.00032   0.05555
10 O 2px         0.00056  -0.00965   0.00744   0.00945  -0.00464
10 O 2py         0.00079  -0.00262   0.01324   0.00698  -0.02940
10 O 2pz         0.00025   0.00142   0.01473   0.00429  -0.03668
10 O 3px         0.00080  -0.01190   0.00978   0.01198  -0.00763
10 O 3py         0.00071  -0.00348   0.01719   0.00923  -0.03748
10 O 3pz         0.00028   0.00175   0.01956   0.00574  -0.04743
10 O 4px        -0.00013  -0.01035   0.01072   0.01060  -0.01230
10 O 4py         0.00381  -0.00319   0.01615   0.00797  -0.03657
10 O 4pz         0.00285   0.00192   0.01680   0.00469  -0.04639
10 O 3dxy        0.00001  -0.00030  -0.00009   0.00020   0.00067
10 O 3dyz        0.00003   0.00009   0.00038   0.00004  -0.00106
10 O 3dz^2      -0.00000   0.00003   0.00011   0.00005  -0.00027
10 O 3dxz        0.00006  -0.00044  -0.00003   0.00025   0.00072
10 O 3dx2-y2    -0.00004   0.00022  -0.00027  -0.00024   0.00031
10 O 4dxy       -0.00002  -0.00041  -0.00045   0.00035   0.00147
10 O 4dyz        0.00006  -0.00029   0.00086   0.00053  -0.00171
10 O 4dz^2      -0.00010  -0.00012   0.00048   0.00017  -0.00056
10 O 4dxz       -0.00013  -0.00121  -0.00034   0.00049   0.00195
10 O 4dx2-y2     0.00001   0.00072  -0.00106  -0.00105   0.00131
10 O 4f-3       -0.00002   0.00016   0.00003  -0.00008  -0.00022
10 O 4f-2       -0.00002   0.00006  -0.00024  -0.00016   0.00060
10 O 4f-1        0.00003  -0.00004  -0.00010  -0.00000   0.00027
10 O 4f+0        0.00001  -0.00016  -0.00006   0.00009   0.00020
10 O 4f+1       -0.00001   0.00013  -0.00017  -0.00011   0.00032
10 O 4f+2       -0.00004   0.00019   0.00005  -0.00007  -0.00031
10 O 4f+3        0.00003  -0.00013   0.00020   0.00021  -0.00033
11 C 1s          0.00007   0.00041  -0.00003   0.00017  -0.00063
11 C 2s          0.00002   0.00552   0.00157  -0.00208  -0.01161
11 C 3s         -0.00351   0.00242  -0.00068  -0.00546  -0.00536
11 C 2px         0.00050   0.00488   0.00516  -0.00194  -0.01905
11 C 2py         0.00055  -0.00721  -0.00071   0.00405   0.01225
11 C 2pz        -0.00024  -0.00333  -0.00391   0.00062   0.01257
11 C 3px        -0.00068  -0.00056   0.00314   0.00279  -0.00278
11 C 3py         0.00209  -0.00172  -0.00258   0.00241   0.00865
11 C 3pz         0.00157   0.00017  -0.00424   0.00046   0.01057
11 C 3dxy        0.00036  -0.00115  -0.00000   0.00081   0.00171
11 C 3dyz       -0.00004   0.00014  -0.00135  -0.00102   0.00330
11 C 3dz^2       0.00021  -0.00007  -0.00186  -0.00073   0.00454
11 C 3dxz        0.00011  -0.00037   0.00026   0.00027   0.00055
11 C 3dx2-y2    -0.00017  -0.00070   0.00277   0.00164  -0.00619
12 H 1s          0.00020  -0.00028  -0.00742  -0.00242   0.01811
12 H 2s         -0.00131   0.00042  -0.00562  -0.00367   0.01324
12 H 2px         0.00012   0.00017   0.00006  -0.00015  -0.00044
12 H 2py         0.00002  -0.00020   0.00014   0.00006   0.00014
12 H 2pz         0.00002  -0.00009   0.00006   0.00001   0.00009
13 O 1s          0.00030   0.00005   0.00021  -0.00018  -0.00001
13 O 2s          0.00701  -0.00799  -0.00232   0.00077  -0.00317
13 O 3s          0.00197  -0.00230  -0.00077   0.00036  -0.00092
13 O 4s          0.01135  -0.01555  -0.00748   0.00407  -0.00532
13 O 2px        -0.00381  -0.01035  -0.00129  -0.00637  -0.00308
13 O 2py        -0.00846  -0.00270   0.00387  -0.00731   0.00007
13 O 2pz         0.00413  -0.00807   0.01079  -0.00347  -0.00166
13 O 3px        -0.00418  -0.01359  -0.00170  -0.00828  -0.00390
13 O 3py        -0.00961  -0.00339   0.00481  -0.00876  -0.00003
13 O 3pz         0.00510  -0.01057   0.01334  -0.00437  -0.00224
13 O 4px        -0.00899  -0.01530  -0.00084  -0.00667  -0.00451
13 O 4py        -0.01386  -0.00457   0.00176  -0.01053  -0.00027
13 O 4pz         0.00645  -0.01209   0.01483  -0.00383  -0.00233
13 O 3dxy        0.00052  -0.00010  -0.00044   0.00036  -0.00008
13 O 3dyz        0.00078  -0.00009   0.00015   0.00015  -0.00003
13 O 3dz^2      -0.00016   0.00006  -0.00049   0.00013  -0.00004
13 O 3dxz       -0.00030   0.00037  -0.00029   0.00006   0.00008
13 O 3dx2-y2     0.00069   0.00042   0.00011   0.00034   0.00008
13 O 4dxy        0.00117  -0.00033  -0.00098   0.00108  -0.00021
13 O 4dyz        0.00253  -0.00023   0.00044   0.00025  -0.00009
13 O 4dz^2      -0.00132   0.00019  -0.00153   0.00015  -0.00012
13 O 4dxz       -0.00096   0.00085  -0.00136   0.00030   0.00013
13 O 4dx2-y2     0.00279   0.00125   0.00071   0.00129   0.00020
13 O 4f-3        0.00032   0.00012  -0.00004   0.00029   0.00004
13 O 4f-2        0.00019   0.00009  -0.00025   0.00014   0.00001
13 O 4f-1        0.00024   0.00003  -0.00013   0.00006  -0.00001
13 O 4f+0       -0.00017   0.00001  -0.00021  -0.00002  -0.00001
13 O 4f+1       -0.00020   0.00015  -0.00018   0.00001   0.00003
13 O 4f+2       -0.00002   0.00021  -0.00005   0.00003   0.00004
13 O 4f+3       -0.00003   0.00012   0.00019  -0.00006   0.00003
14 O 1s         -0.00011  -0.00023   0.00028  -0.00009  -0.00000
14 O 2s          0.00162   0.00081   0.00205   0.00039   0.00041
14 O 3s          0.00058   0.00033   0.00052   0.00017   0.00013
14 O 4s          0.00472   0.00431  -0.00202   0.00050   0.00046
14 O 2px         0.00408  -0.00116   0.00624  -0.00054  -0.00039
14 O 2py         0.00124  -0.00114   0.00093  -0.00111   0.00013
14 O 2pz        -0.00312  -0.00170   0.00085  -0.00179  -0.00041
14 O 3px         0.00479  -0.00116   0.00748  -0.00080  -0.00054
14 O 3py         0.00138  -0.00113   0.00084  -0.00105   0.00030
14 O 3pz        -0.00401  -0.00193   0.00092  -0.00188  -0.00037
14 O 4px         0.00661  -0.00189   0.00758  -0.00085  -0.00035
14 O 4py         0.00144  -0.00300   0.00240  -0.00257  -0.00046
14 O 4pz        -0.00577  -0.00295   0.00046  -0.00428  -0.00097
14 O 3dxy        0.00009   0.00002   0.00002   0.00004  -0.00001
14 O 3dyz       -0.00008  -0.00003  -0.00001  -0.00002  -0.00002
14 O 3dz^2      -0.00008   0.00002  -0.00008   0.00001   0.00000
14 O 3dxz        0.00003  -0.00001  -0.00003   0.00003   0.00000
14 O 3dx2-y2     0.00002   0.00002  -0.00008   0.00003   0.00002
14 O 4dxy        0.00027  -0.00016  -0.00014   0.00013  -0.00007
14 O 4dyz       -0.00006  -0.00006  -0.00008   0.00005  -0.00001
14 O 4dz^2      -0.00013  -0.00020  -0.00003  -0.00007   0.00002
14 O 4dxz       -0.00010  -0.00006  -0.00042  -0.00004  -0.00010
14 O 4dx2-y2    -0.00023  -0.00002  -0.00031  -0.00004  -0.00004
14 O 4f-3        0.00002   0.00002   0.00005   0.00001  -0.00000
14 O 4f-2       -0.00004  -0.00001   0.00011  -0.00004   0.00000
14 O 4f-1        0.00001   0.00001   0.00007   0.00000   0.00001
14 O 4f+0        0.00001   0.00001  -0.00001   0.00003   0.00001
14 O 4f+1       -0.00003  -0.00001   0.00002  -0.00002  -0.00000
14 O 4f+2       -0.00002   0.00004  -0.00004   0.00002  -0.00001
14 O 4f+3        0.00002   0.00001  -0.00005   0.00003  -0.00001
15 C 1s         -0.00025   0.00009   0.00045  -0.00029  -0.00004
15 C 2s         -0.00602   0.00059   0.00507  -0.00407   0.00051
15 C 3s         -0.00881  -0.00221   0.00797  -0.00338   0.00016
15 C 2px        -0.01471  -0.00070  -0.00044  -0.00589   0.00036
15 C 2py         0.00087  -0.00357  -0.00731   0.00245  -0.00206
15 C 2pz         0.01041  -0.00026   0.00828   0.00143   0.00010
15 C 3px        -0.01144   0.00068  -0.00277  -0.00114   0.00050
15 C 3py        -0.00218  -0.00357  -0.00336  -0.00353  -0.00085
15 C 3pz         0.00810  -0.00017   0.00544   0.00157   0.00023
15 C 3dxy        0.00159   0.00053   0.00057   0.00081   0.00007
15 C 3dyz       -0.00144   0.00135  -0.00186   0.00061   0.00027
15 C 3dz^2      -0.00005  -0.00045  -0.00005  -0.00026  -0.00018
15 C 3dxz        0.00129  -0.00085   0.00072  -0.00016  -0.00024
15 C 3dx2-y2    -0.00070  -0.00210  -0.00006  -0.00140  -0.00053
16 H 1s          0.00145  -0.00483   0.00216  -0.00204  -0.00132
16 H 2s          0.00141  -0.00545   0.00311  -0.00199  -0.00160
16 H 2px        -0.00048   0.00002   0.00012  -0.00017   0.00001
16 H 2py        -0.00002  -0.00013  -0.00015   0.00016  -0.00007
16 H 2pz         0.00014   0.00003   0.00022   0.00000   0.00000
17 Fe 1s         0.00007  -0.00024   0.00073   0.00000  -0.00000
17 Fe 2s         0.00025  -0.00069   0.00215   0.00000  -0.00000
17 Fe 3s        -0.03013  -0.00267   0.01038   0.00000  -0.00000
17 Fe 4s        -0.01995  -0.04636   0.02709   0.00001  -0.00000
17 Fe 5s        -0.01009  -0.00419  -0.00591  -0.00000   0.00000
17 Fe 6s         0.00443  -0.00043   0.00453   0.00000  -0.00000
17 Fe 7s        -0.03707  -0.00148  -0.02959  -0.00001  -0.00000
17 Fe 2px       -0.00096  -0.00021  -0.00006   0.00002   0.00001
17 Fe 2py        0.00024  -0.00061   0.00030  -0.00002  -0.00001
17 Fe 2pz        0.00017  -0.00006   0.00005   0.00011   0.00007
17 Fe 3px       -0.02683  -0.00564  -0.00154   0.00027   0.00026
17 Fe 3py       -0.00101  -0.01626   0.00291  -0.00027  -0.00026
17 Fe 3pz        0.00366  -0.00151   0.00063   0.00188   0.00185
17 Fe 4px       -0.09683  -0.02881  -0.00635   0.00070  -0.00128
17 Fe 4py        0.06956  -0.02421   0.07060  -0.00069   0.00128
17 Fe 4pz        0.02360   0.00065   0.01091   0.00496  -0.00903
17 Fe 5px        0.06161   0.03384   0.00646  -0.00072   0.00069
17 Fe 5py       -0.06399   0.06566  -0.05498   0.00071  -0.00068
17 Fe 5pz       -0.01781   0.00451  -0.00871  -0.00508   0.00484
17 Fe 6px       -0.00015   0.00035  -0.00066   0.00005  -0.00004
17 Fe 6py        0.00249   0.00279   0.00210  -0.00005   0.00004
17 Fe 6pz        0.00037   0.00035   0.00039   0.00039  -0.00026
17 Fe 7px       -0.03374  -0.00218  -0.00118  -0.00120  -0.00021
17 Fe 7py       -0.00817  -0.00680  -0.01303   0.00120   0.00021
17 Fe 7pz        0.00363  -0.00065  -0.00168  -0.00846  -0.00149
17 Fe 3dxy      -0.68582  -0.30501   0.33834  -0.07814  -0.01229
17 Fe 3dyz       0.07269  -0.09730  -0.16881  -0.62196  -0.01747
17 Fe 3dz^2      0.42498   0.27089   0.50131  -0.13536  -0.02129
17 Fe 3dxz       0.08754  -0.04878   0.18764  -0.09261   0.06573
17 Fe 3dx2-y2   -0.56492   0.51501  -0.06593  -0.10135   0.00684
17 Fe 4dxy      -0.01026   0.00998  -0.01095   0.00369   0.00075
17 Fe 4dyz       0.00065   0.00454   0.00647   0.02366   0.00119
17 Fe 4dz^2      0.00784  -0.01270  -0.01937   0.00639   0.00130
17 Fe 4dxz       0.00163   0.00099  -0.00667  -0.00132  -0.00390
17 Fe 4dx2-y2   -0.00801  -0.01951   0.00070   0.00317  -0.00038
17 Fe 5dxy      -0.00660   0.00124  -0.00171   0.00068   0.00012
17 Fe 5dyz       0.00051   0.00078   0.00115   0.00413   0.00020
17 Fe 5dz^2      0.00471  -0.00221  -0.00342   0.00117   0.00021
17 Fe 5dxz       0.00097   0.00001  -0.00110  -0.00046  -0.00061
17 Fe 5dx2-y2   -0.00521  -0.00278  -0.00018   0.00052  -0.00006
17 Fe 6dxy      -0.05442  -0.01258   0.01056  -0.00088  -0.00002
17 Fe 6dyz       0.00725  -0.00374  -0.00322  -0.01660  -0.00114
17 Fe 6dz^2      0.02566   0.01224   0.01140  -0.00153  -0.00004
17 Fe 6dxz       0.00430  -0.00119   0.00574  -0.01061  -0.00100
17 Fe 6dx2-y2   -0.04073   0.01741  -0.00887  -0.00386  -0.00030
17 Fe 4f-3       0.00024  -0.00005   0.00009   0.00003  -0.00000
17 Fe 4f-2       0.00002   0.00000  -0.00006   0.00001  -0.00002
17 Fe 4f-1      -0.00010  -0.00018  -0.00018   0.00005  -0.00000
17 Fe 4f+0       0.00001  -0.00004  -0.00006  -0.00006   0.00001
17 Fe 4f+1      -0.00012  -0.00007  -0.00004   0.00001  -0.00000
17 Fe 4f+2       0.00006  -0.00005  -0.00004  -0.00014   0.00000
17 Fe 4f+3      -0.00035  -0.00011   0.00004  -0.00002  -0.00000
17 Fe 5f-3       0.00072  -0.00243   0.00042   0.00036  -0.00003
17 Fe 5f-2       0.00037   0.00036  -0.00018   0.00063   0.00002
17 Fe 5f-1      -0.00022  -0.00182  -0.00068   0.00053  -0.00008
17 Fe 5f+0       0.00004  -0.00043  -0.00022  -0.00093   0.00007
17 Fe 5f+1      -0.00027  -0.00062  -0.00011   0.00013  -0.00001
17 Fe 5f+2       0.00050  -0.00079  -0.00007  -0.00140   0.00018
17 Fe 5f+3      -0.00267  -0.00125  -0.00022  -0.00015   0.00004
17 Fe 5g-4       0.00136  -0.00010   0.00009   0.00019  -0.00000
17 Fe 5g-3      -0.00028   0.00010   0.00001   0.00094  -0.00007
17 Fe 5g-2      -0.00079  -0.00066   0.00005  -0.00027   0.00000
17 Fe 5g-1       0.00013  -0.00015  -0.00014  -0.00074   0.00005
17 Fe 5g+0       0.00072   0.00044   0.00055  -0.00002  -0.00005
17 Fe 5g+1       0.00032  -0.00013   0.00048  -0.00076   0.00014
17 Fe 5g+2      -0.00072   0.00042  -0.00051  -0.00020   0.00006
17 Fe 5g+3      -0.00014   0.00030  -0.00026  -0.00003  -0.00006
17 Fe 5g+4      -0.00003  -0.00180   0.00073   0.00020  -0.00003
18 O 1s         -0.00007  -0.00032  -0.00028   0.00006   0.00040
18 O 2s         -0.00867  -0.00729   0.00042   0.01233  -0.00073
18 O 3s         -0.00262  -0.00192   0.00022   0.00363  -0.00033
18 O 4s         -0.02099  -0.01040   0.00077   0.02008   0.00005
18 O 2px         0.00673   0.00196   0.00996  -0.00520  -0.00595
18 O 2py         0.00750  -0.00728  -0.00540  -0.00776  -0.00109
18 O 2pz         0.00612  -0.01360   0.00412   0.00470   0.00604
18 O 3px         0.00779   0.00277   0.01224  -0.00635  -0.00686
18 O 3py         0.00864  -0.00942  -0.00675  -0.00912  -0.00144
18 O 3pz         0.00684  -0.01816   0.00546   0.00642   0.00677
18 O 4px         0.00811   0.00274   0.01222  -0.00551  -0.00719
18 O 4py         0.00996  -0.01060  -0.00896  -0.00886   0.00004
18 O 4pz         0.01259  -0.01686   0.00716   0.00660   0.00938
18 O 3dxy        0.00037  -0.00035  -0.00031  -0.00042   0.00003
18 O 3dyz       -0.00054   0.00025   0.00037   0.00037   0.00008
18 O 3dz^2      -0.00040   0.00036  -0.00058  -0.00005  -0.00004
18 O 3dxz       -0.00082  -0.00033  -0.00012   0.00064   0.00010
18 O 3dx2-y2     0.00065   0.00013   0.00046  -0.00040  -0.00008
18 O 4dxy        0.00028  -0.00119  -0.00095  -0.00111  -0.00074
18 O 4dyz       -0.00205   0.00082   0.00149   0.00119   0.00002
18 O 4dz^2      -0.00120   0.00143  -0.00256  -0.00029   0.00055
18 O 4dxz       -0.00202  -0.00098  -0.00006   0.00153  -0.00044
18 O 4dx2-y2     0.00153   0.00060   0.00164  -0.00107   0.00023
18 O 4f-3        0.00033   0.00002   0.00021  -0.00015  -0.00018
18 O 4f-2       -0.00020  -0.00022  -0.00010   0.00015   0.00009
18 O 4f-1       -0.00044   0.00033  -0.00009  -0.00002   0.00007
18 O 4f+0        0.00003   0.00018  -0.00034  -0.00019  -0.00006
18 O 4f+1       -0.00053   0.00000  -0.00016   0.00017   0.00018
18 O 4f+2        0.00036  -0.00014  -0.00006  -0.00013  -0.00003
18 O 4f+3       -0.00004   0.00015   0.00019   0.00012   0.00013
19 Fe 1s         0.00007   0.00033  -0.00089  -0.00000   0.00000
19 Fe 2s         0.00022   0.00095  -0.00264  -0.00000   0.00000
19 Fe 3s         0.00137   0.00347  -0.01361  -0.00000   0.00000
19 Fe 4s         0.01723   0.02327  -0.04493  -0.00001   0.00000
19 Fe 5s         0.00235   0.00326   0.00106   0.00000  -0.00000
19 Fe 6s         0.00101   0.00173  -0.00171  -0.00000   0.00000
19 Fe 7s         0.03506  -0.00373   0.01711   0.00000   0.00000
19 Fe 2px        0.00005  -0.00010   0.00148  -0.00002   0.00003
19 Fe 2py        0.00008  -0.00002   0.00030   0.00002  -0.00003
19 Fe 2pz        0.00000   0.00001  -0.00017  -0.00013   0.00022
19 Fe 3px        0.00041  -0.00043   0.03677  -0.00004   0.00088
19 Fe 3py        0.00007  -0.00188   0.00715   0.00005  -0.00089
19 Fe 3pz       -0.00005  -0.00021  -0.00420  -0.00034   0.00624
19 Fe 4px       -0.03471  -0.01615   0.13047  -0.00105   0.00141
19 Fe 4py        0.02662  -0.02311   0.03769   0.00108  -0.00142
19 Fe 4pz        0.00870  -0.00099  -0.01316  -0.00756   0.00997
19 Fe 5px        0.02702   0.01206  -0.16508   0.00041  -0.00339
19 Fe 5py       -0.01309   0.01337  -0.04270  -0.00045   0.00339
19 Fe 5pz       -0.00569   0.00018   0.01735   0.00313  -0.02390
19 Fe 6px       -0.00179  -0.00069  -0.00634  -0.00021  -0.00019
19 Fe 6py       -0.00058   0.00171  -0.00084   0.00020   0.00019
19 Fe 6pz        0.00017   0.00034   0.00078  -0.00145  -0.00133
19 Fe 7px       -0.01125   0.00208   0.00034   0.00088   0.00028
19 Fe 7py       -0.01559  -0.00540  -0.00307  -0.00088  -0.00029
19 Fe 7pz       -0.00061  -0.00106  -0.00049   0.00621   0.00201
19 Fe 3dxy      -0.00621   0.63586  -0.27493   0.09559  -0.13364
19 Fe 3dyz      -0.00348  -0.04649   0.03529  -0.04136  -0.90382
19 Fe 3dz^2     -0.00227  -0.02017   0.32426   0.16573  -0.23153
19 Fe 3dxz      -0.00648   0.13109   0.12018  -0.68864   0.00069
19 Fe 3dx2-y2    0.03509  -0.29822  -0.54766  -0.10364  -0.12809
19 Fe 4dxy      -0.00246  -0.06742   0.03416  -0.01172   0.01962
19 Fe 4dyz      -0.00023   0.00506  -0.00431  -0.00131   0.12450
19 Fe 4dz^2      0.00177   0.00153  -0.04031  -0.02032   0.03399
19 Fe 4dxz      -0.00005  -0.01408  -0.01487   0.07805  -0.00830
19 Fe 4dx2-y2    0.00098   0.03182   0.06757   0.01090   0.01648
19 Fe 5dxy      -0.00073  -0.01330   0.00646  -0.00224   0.00387
19 Fe 5dyz      -0.00005   0.00098  -0.00078  -0.00023   0.02453
19 Fe 5dz^2      0.00078   0.00046  -0.00749  -0.00389   0.00670
19 Fe 5dxz       0.00013  -0.00272  -0.00271   0.01494  -0.00165
19 Fe 5dx2-y2   -0.00028   0.00615   0.01230   0.00209   0.00324
19 Fe 6dxy      -0.00209   0.00863  -0.00369   0.00136   0.00062
19 Fe 6dyz      -0.00065  -0.00073  -0.00106   0.00170   0.00288
19 Fe 6dz^2      0.00229  -0.00013   0.01019   0.00237   0.00106
19 Fe 6dxz      -0.00009   0.00175   0.00307  -0.00753  -0.00128
19 Fe 6dx2-y2    0.00263  -0.00360  -0.00706  -0.00083   0.00023
19 Fe 4f-3      -0.00004   0.00025  -0.00031   0.00004  -0.00012
19 Fe 4f-2      -0.00000  -0.00002   0.00005  -0.00012  -0.00052
19 Fe 4f-1      -0.00001  -0.00013   0.00005   0.00003   0.00005
19 Fe 4f+0      -0.00003  -0.00005  -0.00010   0.00020   0.00012
19 Fe 4f+1       0.00006  -0.00000   0.00033   0.00012  -0.00012
19 Fe 4f+2       0.00001   0.00007   0.00010  -0.00032   0.00016
19 Fe 4f+3      -0.00005  -0.00030  -0.00035  -0.00008  -0.00007
19 Fe 5f-3      -0.00026   0.00270  -0.00374   0.00019  -0.00024
19 Fe 5f-2       0.00017  -0.00027   0.00075  -0.00231  -0.00146
19 Fe 5f-1      -0.00066  -0.00098   0.00124   0.00036   0.00012
19 Fe 5f+0      -0.00024  -0.00044  -0.00109   0.00254   0.00072
19 Fe 5f+1       0.00000   0.00015   0.00427   0.00116  -0.00006
19 Fe 5f+2       0.00009   0.00081   0.00145  -0.00325  -0.00012
19 Fe 5f+3      -0.00161  -0.00283  -0.00465  -0.00098  -0.00028
19 Fe 5g-4       0.00010  -0.00011  -0.00009  -0.00001  -0.00018
19 Fe 5g-3      -0.00002   0.00002  -0.00001  -0.00014  -0.00027
19 Fe 5g-2       0.00001  -0.00012   0.00012   0.00006  -0.00002
19 Fe 5g-1       0.00002   0.00001  -0.00015   0.00001   0.00023
19 Fe 5g+0      -0.00001   0.00003   0.00016   0.00000   0.00009
19 Fe 5g+1       0.00002  -0.00004   0.00011   0.00002   0.00005
19 Fe 5g+2      -0.00006   0.00004   0.00006  -0.00001  -0.00016
19 Fe 5g+3      -0.00001  -0.00000  -0.00001  -0.00007   0.00057
19 Fe 5g+4       0.00008  -0.00020   0.00025  -0.00005   0.00006
20 O 1s         -0.00008  -0.00013  -0.00005  -0.00000  -0.00003
20 O 2s          0.00070   0.00977  -0.00834  -0.01630   0.03091
20 O 3s          0.00018   0.00284  -0.00219  -0.00464   0.00858
20 O 4s          0.00071   0.01708  -0.01298  -0.02460   0.04619
20 O 2px        -0.00311   0.00771   0.01142  -0.00606  -0.02121
20 O 2py         0.00060   0.00107  -0.00297  -0.00945   0.01816
20 O 2pz         0.00459   0.00422  -0.01913  -0.01225   0.04406
20 O 3px        -0.00404   0.00933   0.01508  -0.00665  -0.02824
20 O 3py         0.00115   0.00148  -0.00420  -0.01134   0.02284
20 O 3pz         0.00599   0.00602  -0.02505  -0.01595   0.05738
20 O 4px        -0.00350   0.00840   0.01429  -0.00681  -0.03066
20 O 4py         0.00248  -0.00196  -0.00070  -0.01278   0.01897
20 O 4pz         0.00907   0.00380  -0.02342  -0.01821   0.05594
20 O 3dxy        0.00015  -0.00039  -0.00028   0.00035   0.00005
20 O 3dyz        0.00001  -0.00036   0.00025   0.00067  -0.00106
20 O 3dz^2      -0.00023  -0.00005   0.00012   0.00004  -0.00044
20 O 3dxz        0.00006  -0.00039  -0.00025   0.00032  -0.00005
20 O 3dx2-y2    -0.00008   0.00010  -0.00026  -0.00040   0.00048
20 O 4dxy       -0.00014  -0.00061  -0.00115   0.00098   0.00084
20 O 4dyz       -0.00031  -0.00074   0.00086   0.00118  -0.00244
20 O 4dz^2      -0.00006  -0.00017   0.00042  -0.00007  -0.00090
20 O 4dxz       -0.00006  -0.00110  -0.00034   0.00102  -0.00090
20 O 4dx2-y2     0.00014  -0.00016  -0.00095  -0.00073   0.00134
20 O 4f-3       -0.00000   0.00013   0.00023  -0.00007  -0.00033
20 O 4f-2       -0.00001   0.00012  -0.00017  -0.00024   0.00056
20 O 4f-1        0.00018  -0.00014   0.00004   0.00016  -0.00013
20 O 4f+0        0.00001  -0.00019   0.00009   0.00024  -0.00036
20 O 4f+1        0.00011  -0.00010  -0.00026  -0.00004   0.00056
20 O 4f+2       -0.00013   0.00015   0.00015  -0.00002  -0.00036
20 O 4f+3        0.00005  -0.00009   0.00001   0.00021  -0.00011
21 O 1s         -0.00008  -0.00013  -0.00005   0.00000   0.00003
21 O 2s          0.00070   0.00977  -0.00835   0.01630  -0.03091
21 O 3s          0.00018   0.00284  -0.00219   0.00464  -0.00858
21 O 4s          0.00071   0.01707  -0.01299   0.02460  -0.04619
21 O 2px        -0.00421   0.00630   0.01607   0.00286   0.03170
21 O 2py         0.00171   0.00248  -0.00764   0.01266  -0.02865
21 O 2pz        -0.00322  -0.00571   0.01373  -0.01037   0.02992
21 O 3px        -0.00547   0.00738   0.02117   0.00249   0.04190
21 O 3py         0.00258   0.00343  -0.01029   0.01551  -0.03651
21 O 3pz        -0.00411  -0.00770   0.01786  -0.01343   0.03902
21 O 4px        -0.00574   0.00696   0.02010   0.00208   0.04399
21 O 4py         0.00472  -0.00053  -0.00651   0.01751  -0.03230
21 O 4pz        -0.00673  -0.00633   0.01753  -0.01516   0.03809
21 O 3dxy        0.00019  -0.00036  -0.00040  -0.00023  -0.00036
21 O 3dyz        0.00007   0.00043  -0.00009   0.00058  -0.00091
21 O 3dz^2      -0.00018  -0.00000  -0.00009   0.00017  -0.00009
21 O 3dxz       -0.00009   0.00020   0.00023   0.00012   0.00016
21 O 3dx2-y2    -0.00009   0.00029  -0.00024   0.00064  -0.00074
[...]
0uu00u00uu : -2.17e-02   000uu0u0uu : -3.87e-02   00u000uuuu :  5.21e-02   
000uu0uuu0 :  2.10e-02   00u00uuu0u :  3.76e-02   000uu00uuu : -5.07e-02   
0u0u00u0uu : -1.97e-02   00u00u0uuu :  3.64e-02   0u00uu00uu :  4.63e-02   
Leading 10 CSFs of 3 local primitive basis functions for fragment 1 in rootspace 32:
State 0/3                State 1/3                State 2/3                
0000uuuuuu :  9.57e-01   000u0uuuuu :  9.91e-01   00u00uuuuu :  9.58e-01   
00u00uuuuu :  2.52e-01   0u0u0uuu0u : -6.41e-02   0000uuuuuu : -2.52e-01   
000uuu0uuu : -6.18e-02   000uu0uuuu :  6.40e-02   00u0u0uuuu :  6.07e-02   
0u00uuuu0u : -6.17e-02   00uu0uu0uu : -6.18e-02   00uu0u0uuu :  6.00e-02   
00u0uuu0uu : -5.97e-02   u00u0uuuu0 : -5.63e-02   u0u00uuuu0 : -5.96e-02   
0u000uuuuu : -5.87e-02   u0uu0uu0u0 : -2.39e-02   0uu00uuu0u : -5.83e-02   
u000uuuuu0 : -5.41e-02   0u0uu0uu0u :  2.28e-02   0uuu0u0u0u :  2.19e-02   
u0u0uuu0u0 : -2.30e-02   00uuu0u0uu :  2.07e-02   0uu0u0uu0u :  2.18e-02   
0u0uuu0u0u : -2.18e-02   u00uu0uuu0 :  1.95e-02   00uuu00uuu : -2.11e-02   
00uuuu00uu : -1.96e-02   0uuu0uu00u : -1.94e-02   u0uu0u0uu0 :  1.91e-02   
Rootspace 11 with averaged weight 2.584e-08
 Frag    Nelec  2S+1   Ir     <n>  Max(weight)   Entropy
    0    1a+4b     6    A   0.010       0.9913  0.019995
    1    5a+1b     7    A   0.197       0.9006  0.020041
Wave function(s) in rootspace 11 in local primitive basis:
 Fac:  1.330e-04  1.972e-04  1.041e-04  1.096e-04  2.231e-04
  00: -9.439e-01  9.449e-01 -9.459e-01 -9.455e-01  9.461e-01
  02: -3.173e-01  3.140e-01 -3.108e-01 -3.118e-01  3.099e-01
  10:  8.294e-02 -8.386e-02  8.437e-02  8.558e-02 -8.567e-02
  21: -3.841e-02  3.856e-02 -3.861e-02 -3.894e-02  3.892e-02
  12: -7.388e-03  7.436e-03 -7.456e-03 -7.537e-03  7.534e-03
  01: -2.346e-04  2.346e-04 -2.341e-04 -2.358e-04  2.353e-04
Remaining 3 ENVs in rootspace 11 have combined average weight = 3.815114e-11
Leading 10 CSFs of 3 local primitive basis functions for fragment 0 in rootspace 11:
State 0/3                State 1/3                State 2/3                
00000uuuuu :  9.82e-01   0000u0uuuu : -9.09e-01   0000uuuu0u :  8.48e-01   
0000uuuuu0 : -1.14e-01   0000uuu0uu : -3.74e-01   0000uu0uuu :  4.88e-01   
000u00uuuu : -7.49e-02   00u0u00uuu :  9.11e-02   000uu0uu0u :  8.82e-02   
00u00u0uuu : -7.11e-02   0u00u0u0uu :  8.78e-02   00u0uu0u0u :  8.78e-02   
0u000uu0uu : -6.75e-02   u000u0uu0u :  7.35e-02   0u00uuu00u :  8.72e-02   
u0000uuu0u : -5.76e-02   000u00uuuu : -4.81e-02   0u000uuu0u :  6.40e-02   
uu000uu00u : -2.25e-02   00u0uu00uu : -4.05e-02   0u000u0uuu :  6.37e-02   
0uu00u00uu : -2.17e-02   000uu0u0uu : -3.87e-02   00u000uuuu : -5.20e-02   
000uu0uuu0 :  2.10e-02   00u00uuu0u :  3.76e-02   000uu00uuu :  5.07e-02   
0u0u00u0uu : -1.97e-02   00u00u0uuu :  3.64e-02   0u00uu00uu : -4.63e-02   
Leading 10 CSFs of 3 local primitive basis functions for fragment 1 in rootspace 11:
State 0/3                State 1/3                State 2/3                
0000uuuuuu :  9.57e-01   000u0uuuuu :  9.91e-01   00u00uuuuu : -9.59e-01   
00u00uuuuu :  2.51e-01   0u0u0uuu0u : -6.41e-02   0000uuuuuu :  2.51e-01   
000uuu0uuu : -6.18e-02   000uu0uuuu :  6.40e-02   00u0u0uuuu : -6.07e-02   
0u00uuuu0u : -6.17e-02   00uu0uu0uu : -6.18e-02   00uu0u0uuu : -6.01e-02   
00u0uuu0uu : -5.97e-02   u00u0uuuu0 : -5.63e-02   u0u00uuuu0 :  5.96e-02   
0u000uuuuu : -5.90e-02   u0uu0uu0u0 : -2.39e-02   0uu00uuu0u :  5.83e-02   
u000uuuuu0 : -5.41e-02   0u0uu0uu0u :  2.28e-02   0uuu0u0u0u : -2.19e-02   
u0u0uuu0u0 : -2.30e-02   00uuu0u0uu :  2.07e-02   0uu0u0uu0u : -2.18e-02   
0u0uuu0u0u : -2.18e-02   u00uu0uuu0 :  1.95e-02   00uuu00uuu :  2.11e-02   
00uuuu00uu : -1.96e-02   0uuu0uu00u : -1.94e-02   u0uu0u0uu0 : -1.91e-02   
Rootspace 29 with averaged weight 2.220e-08
 Frag    Nelec  2S+1   Ir     <n>  Max(weight)   Entropy
    0    4a+1b     6    A   0.010       0.9913  0.019942
    1    2a+4b     7    A   0.196       0.9014  0.019984
Wave function(s) in rootspace 29 in local primitive basis:
 Fac:  1.550e-04  1.237e-04  7.068e-05  2.086e-04  1.523e-04
  00: -9.445e-01 -9.457e-01  9.452e-01  9.463e-01  9.466e-01
  02: -3.155e-01 -3.118e-01  3.128e-01  3.095e-01  3.083e-01
  10:  8.271e-02  8.351e-02 -8.500e-02 -8.513e-02 -8.540e-02
  21:  3.835e-02  3.846e-02 -3.887e-02 -3.882e-02 -3.886e-02
  12: -7.425e-03 -7.465e-03  7.565e-03  7.559e-03  7.571e-03
  01: -2.344e-04 -2.338e-04  2.366e-04  2.352e-04  2.350e-04
Remaining 3 ENVs in rootspace 29 have combined average weight = 3.770513e-11
Leading 10 CSFs of 3 local primitive basis functions for fragment 0 in rootspace 29:
State 0/3                State 1/3                State 2/3                
00000uuuuu :  9.82e-01   0000u0uuuu : -9.09e-01   0000uuuu0u : -8.48e-01   
0000uuuuu0 : -1.14e-01   0000uuu0uu : -3.73e-01   0000uu0uuu : -4.88e-01   
000u00uuuu : -7.49e-02   00u0u00uuu :  9.11e-02   000uu0uu0u : -8.82e-02   
00u00u0uuu : -7.11e-02   0u00u0u0uu :  8.78e-02   00u0uu0u0u : -8.78e-02   
0u000uu0uu : -6.75e-02   u000u0uu0u :  7.35e-02   0u00uuu00u : -8.72e-02   
u0000uuu0u : -5.76e-02   000u00uuuu : -4.80e-02   0u000uuu0u : -6.38e-02   
uu000uu00u : -2.25e-02   00u0uu00uu : -4.05e-02   0u000u0uuu : -6.36e-02   
0uu00u00uu : -2.17e-02   000uu0u0uu : -3.86e-02   00u000uuuu :  5.20e-02   
000uu0uuu0 :  2.10e-02   00u00uuu0u :  3.76e-02   000uu00uuu : -5.06e-02   
0u0u00u0uu : -1.97e-02   00u00u0uuu :  3.64e-02   0u00uu00uu :  4.63e-02   
Leading 10 CSFs of 3 local primitive basis functions for fragment 1 in rootspace 29:
State 0/3                State 1/3                State 2/3                
0000uuuuuu :  9.57e-01   000u0uuuuu :  9.91e-01   00u00uuuuu : -9.59e-01   
00u00uuuuu :  2.50e-01   0u0u0uuu0u : -6.41e-02   0000uuuuuu :  2.50e-01   
000uuu0uuu : -6.19e-02   000uu0uuuu :  6.40e-02   00u0u0uuuu : -6.07e-02   
0u00uuuu0u : -6.18e-02   00uu0uu0uu : -6.18e-02   00uu0u0uuu : -6.01e-02   
00u0uuu0uu : -5.97e-02   u00u0uuuu0 : -5.63e-02   u0u00uuuu0 :  5.96e-02   
0u000uuuuu : -5.93e-02   u0uu0uu0u0 : -2.39e-02   0uu00uuu0u :  5.84e-02   
u000uuuuu0 : -5.41e-02   0u0uu0uu0u :  2.28e-02   0uuu0u0u0u : -2.19e-02   
u0u0uuu0u0 : -2.30e-02   00uuu0u0uu :  2.07e-02   0uu0u0uu0u : -2.18e-02   
0u0uuu0u0u : -2.18e-02   u00uu0uuu0 :  1.95e-02   00uuu00uuu :  2.11e-02   
00uuuu00uu : -1.96e-02   0uuu0uu00u : -1.94e-02   u0uu0u0uu0 : -1.91e-02   
Rootspace 17 with averaged weight 1.975e-08
 Frag    Nelec  2S+1   Ir     <n>  Max(weight)   Entropy
    0    2a+3b     6    A   0.010       0.9914  0.019893
    1    4a+2b     7    A   0.195       0.9019  0.019976
Wave function(s) in rootspace 17 in local primitive basis:
 Fac:  1.251e-04  4.436e-05  1.916e-04  3.215e-05  2.083e-04
  00:  9.449e-01  9.444e-01 -9.461e-01  9.472e-01  9.469e-01
  02:  3.143e-01  3.152e-01 -3.100e-01  3.068e-01  3.075e-01
  10: -8.253e-02 -8.427e-02  8.444e-02 -8.453e-02 -8.531e-02
  21: -3.830e-02 -3.879e-02  3.869e-02 -3.863e-02 -3.884e-02
  12:  7.448e-03  7.563e-03 -7.557e-03  7.548e-03  7.601e-03
  01:  2.342e-04  2.372e-04 -2.351e-04  2.336e-04  2.351e-04
Remaining 3 ENVs in rootspace 17 have combined average weight = 3.737475e-11
Leading 10 CSFs of 3 local primitive basis functions for fragment 0 in rootspace 17:
State 0/3                State 1/3                State 2/3                
00000uuuuu :  9.82e-01   0000u0uuuu : -9.09e-01   0000uuuu0u : -8.48e-01   
0000uuuuu0 : -1.14e-01   0000uuu0uu : -3.73e-01   0000uu0uuu : -4.88e-01   
000u00uuuu : -7.49e-02   00u0u00uuu :  9.11e-02   000uu0uu0u : -8.82e-02   
00u00u0uuu : -7.11e-02   0u00u0u0uu :  8.78e-02   00u0uu0u0u : -8.78e-02   
0u000uu0uu : -6.75e-02   u000u0uu0u :  7.35e-02   0u00uuu00u : -8.72e-02   
u0000uuu0u : -5.76e-02   000u00uuuu : -4.79e-02   0u000uuu0u : -6.37e-02   
uu000uu00u : -2.25e-02   00u0uu00uu : -4.05e-02   0u000u0uuu : -6.35e-02   
0uu00u00uu : -2.17e-02   000uu0u0uu : -3.86e-02   00u000uuuu :  5.20e-02   
000uu0uuu0 :  2.10e-02   00u00uuu0u :  3.76e-02   000uu00uuu : -5.06e-02   
0u0u00u0uu : -1.97e-02   00u00u0uuu :  3.63e-02   0u00uu00uu :  4.63e-02   
Leading 10 CSFs of 3 local primitive basis functions for fragment 1 in rootspace 17:
State 0/3                State 1/3                State 2/3                
0000uuuuuu :  9.57e-01   000u0uuuuu :  9.91e-01   00u00uuuuu : -9.59e-01   
00u00uuuuu :  2.49e-01   0u0u0uuu0u : -6.41e-02   0000uuuuuu :  2.50e-01   
000uuu0uuu : -6.19e-02   000uu0uuuu :  6.41e-02   00u0u0uuuu : -6.08e-02   
0u00uuuu0u : -6.18e-02   00uu0uu0uu : -6.18e-02   00uu0u0uuu : -6.01e-02   
00u0uuu0uu : -5.97e-02   u00u0uuuu0 : -5.63e-02   u0u00uuuu0 :  5.96e-02   
0u000uuuuu : -5.94e-02   u0uu0uu0u0 : -2.39e-02   0uu00uuu0u :  5.84e-02   
u000uuuuu0 : -5.41e-02   0u0uu0uu0u :  2.28e-02   0uuu0u0u0u : -2.19e-02   
u0u0uuu0u0 : -2.30e-02   00uuu0u0uu :  2.07e-02   0uu0u0uu0u : -2.18e-02   
0u0uuu0u0u : -2.18e-02   u00uu0uuu0 :  1.95e-02   00uuu00uuu :  2.12e-02   
00uuuu00uu : -1.96e-02   0uuu0uu00u : -1.94e-02   u0uu0u0uu0 : -1.91e-02   
Rootspace 23 with averaged weight 1.852e-08
 Frag    Nelec  2S+1   Ir     <n>  Max(weight)   Entropy
    0    3a+2b     6    A   0.010       0.9914  0.019844
    1    3a+3b     7    A   0.194       0.9023  0.019887
Wave function(s) in rootspace 23 in local primitive basis:
 Fac:  5.408e-05  1.520e-04  1.102e-04  1.421e-04  1.850e-04
  00:  9.451e-01 -9.455e-01 -9.464e-01  9.468e-01  9.471e-01
  02: -3.138e-01  3.121e-01  3.094e-01 -3.080e-01 -3.069e-01
  10:  8.248e-02 -8.367e-02 -8.433e-02  8.492e-02  8.522e-02
  21: -3.829e-02  3.856e-02  3.866e-02 -3.878e-02 -3.882e-02
  12:  7.461e-03 -7.534e-03 -7.566e-03  7.599e-03  7.613e-03
  01:  2.342e-04 -2.350e-04 -2.348e-04  2.350e-04  2.350e-04
Remaining 3 ENVs in rootspace 23 have combined average weight = 3.717960e-11
Leading 10 CSFs of 3 local primitive basis functions for fragment 0 in rootspace 23:
State 0/3                State 1/3                State 2/3                
00000uuuuu :  9.82e-01   0000u0uuuu :  9.09e-01   0000uuuu0u : -8.48e-01   
0000uuuuu0 : -1.14e-01   0000uuu0uu :  3.73e-01   0000uu0uuu : -4.88e-01   
000u00uuuu : -7.48e-02   00u0u00uuu : -9.11e-02   000uu0uu0u : -8.82e-02   
00u00u0uuu : -7.11e-02   0u00u0u0uu : -8.78e-02   00u0uu0u0u : -8.78e-02   
0u000uu0uu : -6.75e-02   u000u0uu0u : -7.35e-02   0u00uuu00u : -8.72e-02   
u0000uuu0u : -5.76e-02   000u00uuuu :  4.78e-02   0u000uuu0u : -6.36e-02   
uu000uu00u : -2.25e-02   00u0uu00uu :  4.04e-02   0u000u0uuu : -6.35e-02   
0uu00u00uu : -2.17e-02   000uu0u0uu :  3.86e-02   00u000uuuu :  5.20e-02   
000uu0uuu0 :  2.10e-02   00u00uuu0u : -3.76e-02   000uu00uuu : -5.06e-02   
0u0u00u0uu : -1.97e-02   00u00u0uuu : -3.63e-02   0u00uu00uu :  4.63e-02   
Leading 10 CSFs of 3 local primitive basis functions for fragment 1 in rootspace 23:
State 0/3                State 1/3                State 2/3                
0000uuuuuu :  9.57e-01   000u0uuuuu :  9.91e-01   00u00uuuuu :  9.59e-01   
00u00uuuuu :  2.49e-01   0u0u0uuu0u : -6.41e-02   0000uuuuuu : -2.50e-01   
000uuu0uuu : -6.19e-02   000uu0uuuu :  6.41e-02   00u0u0uuuu :  6.08e-02   
0u00uuuu0u : -6.18e-02   00uu0uu0uu : -6.18e-02   00uu0u0uuu :  6.01e-02   
00u0uuu0uu : -5.97e-02   u00u0uuuu0 : -5.63e-02   u0u00uuuu0 : -5.96e-02   
0u000uuuuu : -5.95e-02   u0uu0uu0u0 : -2.39e-02   0uu00uuu0u : -5.84e-02   
u000uuuuu0 : -5.41e-02   0u0uu0uu0u :  2.28e-02   0uuu0u0u0u :  2.19e-02   
u0u0uuu0u0 : -2.30e-02   00uuu0u0uu :  2.07e-02   0uu0u0uu0u :  2.18e-02   
0u0uuu0u0u : -2.18e-02   u00uu0uuu0 :  1.95e-02   00uuu00uuu : -2.12e-02   
00uuuu00uu : -1.96e-02   0uuu0uu00u : -1.94e-02   u0uu0u0uu0 :  1.91e-02   
Rootspace 21 with averaged weight 1.023e-08
 Frag    Nelec  2S+1   Ir     <n>  Max(weight)   Entropy
    0    3a+2b     4    A   1.036       0.8634  0.398794
    1    3a+3b     7    A   0.600       0.6316  0.398769
Wave function(s) in rootspace 21 in local primitive basis:
 Fac:  1.971e-04  6.939e-05  6.870e-05  5.237e-05  1.223e-06
  10:  7.943e-01  7.946e-01 -7.949e-01 -7.951e-01 -7.949e-01
  12:  4.825e-01  4.818e-01 -4.813e-01 -4.810e-01 -4.804e-01
  21:  2.952e-01  2.942e-01 -2.935e-01 -2.930e-01 -2.937e-01
  01:  2.215e-01  2.232e-01 -2.244e-01 -2.252e-01 -2.261e-01
  22:  7.953e-04  7.924e-04 -7.898e-04 -7.883e-04 -7.909e-04
  02:  5.905e-04  5.922e-04 -5.936e-04 -5.944e-04 -5.928e-04
  00: -2.100e-04 -2.105e-04  2.109e-04  2.112e-04  2.108e-04
  11: -1.383e-04 -1.381e-04  1.380e-04  1.378e-04  1.359e-04
  20: -1.241e-04 -1.231e-04  1.228e-04  1.221e-04  1.162e-04
All 9 ENVs in rootspace 21 accounted for
Leading 10 CSFs of 3 local primitive basis functions for fragment 0 in rootspace 21:
State 0/3                State 1/3                State 2/3                
00000uu20u :  6.84e-01   000000uuu2 :  6.89e-01   0000002uuu :  5.21e-01   
000002uu0u : -4.78e-01   00000u2u0u :  4.23e-01   00000uuu02 :  5.16e-01   
00000uuu02 :  3.89e-01   00000uu0u2 :  3.27e-01   00000u20uu :  4.49e-01   
00000u0uu2 :  2.35e-01   00000uuduu : -2.35e-01   00000uu20u : -2.51e-01   
00000u02uu :  1.19e-01   00000duuuu :  2.22e-01   00000u0uu2 :  2.36e-01   
00000uu02u : -1.13e-01   000000u2uu : -2.20e-01   000002uu0u :  1.77e-01   
0000020uuu : -1.00e-01   00000uu2u0 :  1.45e-01   000000uu2u : -1.76e-01   
00000uuu20 : -9.46e-02   00000uuudu :  9.53e-02   0000020uuu : -1.46e-01   
000000uu2u :  8.62e-02   00000uduuu : -8.37e-02   00000uuu20 : -1.33e-01   
0000uuu200 :  7.95e-02   000002u0uu :  7.38e-02   00000uu02u : -7.35e-02   
Leading 10 CSFs of 3 local primitive basis functions for fragment 1 in rootspace 21:
State 0/3                State 1/3                State 2/3                
0000uuuuuu :  9.58e-01   000u0uuuuu :  9.91e-01   00u00uuuuu : -9.60e-01   
00u00uuuuu :  2.46e-01   0u0u0uuu0u : -6.41e-02   0000uuuuuu :  2.47e-01   
000uuu0uuu : -6.19e-02   000uu0uuuu :  6.41e-02   00u0u0uuuu : -6.08e-02   
0u00uuuu0u : -6.18e-02   00uu0uu0uu : -6.19e-02   00uu0u0uuu : -6.02e-02   
00u0uuu0uu : -5.98e-02   u00u0uuuu0 : -5.63e-02   u0u00uuuu0 :  5.97e-02   
0u000uuuuu : -5.91e-02   u0uu0uu0u0 : -2.39e-02   0uu00uuu0u :  5.84e-02   
u000uuuuu0 : -5.42e-02   0u0uu0uu0u :  2.28e-02   0uuu0u0u0u : -2.20e-02   
u0u0uuu0u0 : -2.30e-02   00uuu0u0uu :  2.07e-02   0uu0u0uu0u : -2.18e-02   
0u0uuu0u0u : -2.18e-02   u00uu0uuu0 :  1.95e-02   00uuu00uuu :  2.12e-02   
00uuuu00uu : -1.96e-02   0uuu0uu00u : -1.94e-02   u0uu0u0uu0 : -1.91e-02   
Rootspace 15 with averaged weight 9.567e-09
 Frag    Nelec  2S+1   Ir     <n>  Max(weight)   Entropy
    0    2a+3b     4    A   1.034       0.8637  0.398213
    1    4a+2b     7    A   0.601       0.6313  0.398184
Wave function(s) in rootspace 15 in local primitive basis:
 Fac:  1.709e-04  1.207e-04  2.047e-05  6.030e-05  3.330e-06
  10:  7.940e-01 -7.943e-01 -7.946e-01  7.947e-01  7.951e-01
  12:  4.830e-01 -4.823e-01 -4.818e-01  4.814e-01  4.819e-01
  21:  2.931e-01 -2.922e-01 -2.912e-01  2.909e-01  2.896e-01
  01:  2.244e-01 -2.260e-01 -2.273e-01  2.281e-01  2.275e-01
  22: -7.899e-04  7.870e-04  7.848e-04 -7.832e-04 -7.871e-04
  02: -5.974e-04  5.991e-04  6.004e-04 -6.011e-04 -6.010e-04
  00:  2.149e-04 -2.154e-04 -2.164e-04  2.162e-04  2.208e-04
  11:  1.374e-04 -1.371e-04 -1.368e-04  1.368e-04  1.350e-04
  20:  1.266e-04 -1.256e-04 -1.242e-04  1.242e-04  1.168e-04
All 9 ENVs in rootspace 15 accounted for
Leading 10 CSFs of 3 local primitive basis functions for fragment 0 in rootspace 15:
State 0/3                State 1/3                State 2/3                
00000uu20u :  6.81e-01   000000uuu2 : -6.91e-01   0000002uuu :  5.20e-01   
000002uu0u : -4.76e-01   00000u2u0u : -4.21e-01   00000uuu02 :  5.13e-01   
00000uuu02 :  3.94e-01   00000uu0u2 : -3.28e-01   00000u20uu :  4.48e-01   
00000u0uu2 :  2.38e-01   00000uuduu :  2.34e-01   00000uu20u : -2.58e-01   
00000u02uu :  1.19e-01   00000duuuu : -2.21e-01   00000u0uu2 :  2.34e-01   
00000uu02u : -1.13e-01   000000u2uu :  2.19e-01   000002uu0u :  1.82e-01   
0000020uuu : -1.02e-01   00000uu2u0 : -1.45e-01   000000uu2u : -1.76e-01   
00000uuu20 : -9.60e-02   00000uuudu : -9.50e-02   0000020uuu : -1.45e-01   
000000uu2u :  8.45e-02   00000uduuu :  8.37e-02   00000uuu20 : -1.32e-01   
0000uuu200 :  7.92e-02   000002u0uu : -7.36e-02   00000uu02u : -7.20e-02   
Leading 10 CSFs of 3 local primitive basis functions for fragment 1 in rootspace 15:
State 0/3                State 1/3                State 2/3                
0000uuuuuu :  9.58e-01   000u0uuuuu : -9.91e-01   00u00uuuuu : -9.60e-01   
00u00uuuuu :  2.47e-01   0u0u0uuu0u :  6.41e-02   0000uuuuuu :  2.47e-01   
000uuu0uuu : -6.19e-02   000uu0uuuu : -6.41e-02   00u0u0uuuu : -6.08e-02   
0u00uuuu0u : -6.18e-02   00uu0uu0uu :  6.19e-02   00uu0u0uuu : -6.02e-02   
00u0uuu0uu : -5.98e-02   u00u0uuuu0 :  5.63e-02   u0u00uuuu0 :  5.97e-02   
0u000uuuuu : -5.90e-02   u0uu0uu0u0 :  2.39e-02   0uu00uuu0u :  5.84e-02   
u000uuuuu0 : -5.42e-02   0u0uu0uu0u : -2.28e-02   0uuu0u0u0u : -2.20e-02   
u0u0uuu0u0 : -2.30e-02   00uuu0u0uu : -2.07e-02   0uu0u0uu0u : -2.18e-02   
0u0uuu0u0u : -2.18e-02   u00uu0uuu0 : -1.95e-02   00uuu00uuu :  2.12e-02   
00uuuu00uu : -1.96e-02   0uuu0uu00u :  1.94e-02   u0uu0u0uu0 : -1.91e-02   
Rootspace 27 with averaged weight 8.243e-09
 Frag    Nelec  2S+1   Ir     <n>  Max(weight)   Entropy
    0    4a+1b     4    A   1.028       0.8652  0.395536
    1    2a+4b     7    A   0.603       0.6308  0.395520
Wave function(s) in rootspace 27 in local primitive basis:
 Fac:  9.914e-05  1.403e-04  1.028e-04  3.378e-05  3.486e-07
  10: -7.933e-01 -7.936e-01 -7.938e-01 -7.940e-01  7.966e-01
  12:  4.839e-01  4.833e-01  4.828e-01  4.824e-01 -4.879e-01
  21:  2.889e-01  2.879e-01  2.871e-01  2.867e-01 -2.762e-01
  01:  2.302e-01  2.319e-01  2.331e-01  2.340e-01 -2.262e-01
  22: -7.750e-04 -7.720e-04 -7.696e-04 -7.672e-04  8.326e-04
  02: -6.127e-04 -6.143e-04 -6.155e-04 -6.164e-04  6.076e-04
  00: -2.248e-04 -2.254e-04 -2.256e-04 -2.253e-04  2.724e-04
  11:  1.354e-04  1.351e-04  1.350e-04  1.352e-04 -1.055e-04
  20: -1.200e-04 -1.190e-04 -1.185e-04 -1.192e-04  1.245e-05
All 9 ENVs in rootspace 27 accounted for
Leading 10 CSFs of 3 local primitive basis functions for fragment 0 in rootspace 27:
State 0/3                State 1/3                State 2/3                
00000uu20u : -6.75e-01   000000uuu2 :  6.94e-01   0000002uuu : -5.18e-01   
000002uu0u :  4.72e-01   00000u2u0u :  4.18e-01   00000uuu02 : -5.06e-01   
00000uuu02 : -4.06e-01   00000uu0u2 :  3.28e-01   00000u20uu : -4.48e-01   
00000u0uu2 : -2.44e-01   00000uuduu : -2.32e-01   00000uu20u :  2.72e-01   
00000u02uu : -1.19e-01   00000duuuu :  2.20e-01   00000u0uu2 : -2.31e-01   
00000uu02u :  1.14e-01   000000u2uu : -2.19e-01   000002uu0u : -1.92e-01   
0000020uuu :  1.04e-01   00000uu2u0 :  1.45e-01   000000uu2u :  1.78e-01   
00000uuu20 :  9.91e-02   00000uuudu :  9.42e-02   0000020uuu :  1.43e-01   
000000uu2u : -8.12e-02   00000uduuu : -8.38e-02   00000uuu20 :  1.31e-01   
0000uuu200 : -7.84e-02   000002u0uu :  7.32e-02   00000uu02u :  6.88e-02   
Leading 10 CSFs of 3 local primitive basis functions for fragment 1 in rootspace 27:
State 0/3                State 1/3                State 2/3                
0000uuuuuu :  9.58e-01   000u0uuuuu :  9.91e-01   00u00uuuuu :  9.59e-01   
00u00uuuuu :  2.48e-01   0u0u0uuu0u : -6.41e-02   0000uuuuuu : -2.48e-01   
000uuu0uuu : -6.19e-02   000uu0uuuu :  6.41e-02   00u0u0uuuu :  6.08e-02   
0u00uuuu0u : -6.18e-02   00uu0uu0uu : -6.19e-02   00uu0u0uuu :  6.02e-02   
00u0uuu0uu : -5.98e-02   u00u0uuuu0 : -5.63e-02   u0u00uuuu0 : -5.97e-02   
0u000uuuuu : -5.87e-02   u0uu0uu0u0 : -2.39e-02   0uu00uuu0u : -5.84e-02   
u000uuuuu0 : -5.42e-02   0u0uu0uu0u :  2.28e-02   0uuu0u0u0u :  2.19e-02   
u0u0uuu0u0 : -2.30e-02   00uuu0u0uu :  2.07e-02   0uu0u0uu0u :  2.18e-02   
0u0uuu0u0u : -2.18e-02   u00uu0uuu0 :  1.95e-02   00uuu00uuu : -2.12e-02   
00uuuu00uu : -1.96e-02   0uuu0uu00u : -1.94e-02   u0uu0u0uu0 :  1.91e-02   
Remaining 1 rootspaces have combined weight = 6.218771e-09
