#INFO: **** input file is /project/lgagliardi/valayagarawal/lasscf/mof_nodes/Al_Fe_Fe/production/20_11/lassi_1_19.py ****
import numpy as np
import sys
from pyscf import gto, scf, tools,lib, mcscf
from pyscf.mcscf import avas,project_init_guess
from pyscf import mcscf
from mrh.my_pyscf.tools import molden
from mrh.my_pyscf.mcscf import lasscf_async as asyn
mol_name='Al_Fe_Fe.xyz' # Al-Fe-Fe MOF node
basis={'C': 'cc-pvdz','H': 'cc-pvdz','O': 'cc-pvtz','Al': 'cc-pvtz','Fe': 'cc-pvtz'}
n=19
output='r1_n'+str(n)+'.log'
mol=gto.M(atom=mol_name,verbose=4,spin=9,charge=0,basis=basis, output=output) #spin = 2S
mf=scf.RHF(mol)
mf.init_guess='atom'
mf=mf.density_fit()
mf.max_cycle=1
mf.kernel()
mf.mo_coeff=np.load('hf.npy')
#np.save('hf',mf.mo_coeff)
#ncas,nelecas,guess_mo_coeff=avas.kernel(mf,['Fe 3d', 'Fe 4d'],minao=mol.basis, openshell_option=3)
#mc_test = mcscf.CASCI (mf, ncas, nelecas)
#tools.molden.from_mo(mol,'avas.molden',guess_mo_coeff[:,mc_test.ncore:][:,:ncas])
#final_list=[5,6,8,9,10,11,12,13,14]#,15,16,17,18,19,20,21,22,23,24,25]+mc_test.ncore

mo_guess=np.load('las_20_11.npy')
las=asyn.LASSCF(mf,(10,10),((1,5),(5,0)),spin_sub=(5,6),verbose=4) # spin is 2S+1
las.set_fragments_(([17],[19]),mo_guess)
las.mo_coeff=mo_guess
from mrh.my_pyscf.lassi import states
las=states.spin_shuffle(las)
#for _ in range(i):
las=states.all_single_excitations(las)
ncsf=las.get_ugg().ncsf_sub
lroots=np.minimum(n,ncsf)
las.lasci()
las.lasci(lroots=lroots)
e_roots, si= las.lassi(opt=1)
from mrh.my_pyscf.lassi.sitools import analyze
analyze(las,si, state=[0,1,2,3,4])
#INFO: ******************** input file end ********************


System: uname_result(system='Linux', node='midway3-0544.rcc.local', release='4.18.0-305.3.1.el8.x86_64', version='#1 SMP Tue Jun 1 16:14:33 UTC 2021', machine='x86_64')  Threads 16
Python 3.9.12 (main, Apr  5 2022, 06:56:58) 
[GCC 7.5.0]
numpy 1.25.0  scipy 1.7.3
Date: Tue Feb 20 18:11:31 2024
PySCF version 2.5.0
PySCF path  /project/lgagliardi/shared/Apps/pyscf
GIT ORIG_HEAD 0bc590ffddec98eec5d2513a3d85274b7a791bc6
GIT HEAD (branch master) 6f8ce439fbe0c26ec4d226e2225b28c7f668f922

[ENV] PYSCF_MAX_MEMORY 128000
[CONFIG] conf_file /home/valayagarawal/.pyscf_conf.py
[INPUT] verbose = 4
[INPUT] num. atoms = 28
[INPUT] num. electrons = 211
[INPUT] charge = 0
[INPUT] spin (= nelec alpha-beta = 2S) = 9
[INPUT] symmetry False subgroup None
[INPUT] Mole.unit = angstrom
[INPUT] Symbol           X                Y                Z      unit          X                Y                Z       unit  Magmom
[INPUT]  1 O     -2.220198244100   0.399190300300   1.694471698900 AA   -4.195566623589   0.754360339150   3.202087436747 Bohr   0.0
[INPUT]  2 O     -1.685553244600  -1.782306321700   1.431399507200 AA   -3.185234000666  -3.368070818094   2.704953043445 Bohr   0.0
[INPUT]  3 C     -2.268517865100  -0.831955037900   1.983951274000 AA   -4.286877473722  -1.572167169583   3.749124552342 Bohr   0.0
[INPUT]  4 H     -2.913342016700  -1.076728588500   2.843786805300 AA   -5.505418518751  -2.034722142755   5.373978218669 Bohr   0.0
[INPUT]  5 O      1.388288080900   2.079556156200  -1.347085675300 AA    2.623484254899   3.929791595871  -2.545622992642 Bohr   0.0
[INPUT]  6 O     -0.759908859500   2.580923634700  -0.849227704000 AA   -1.436019624086   4.877238818000  -1.604807777953 Bohr   0.0
[INPUT]  7 C      0.346567468600   2.753895325000  -1.438835699000 AA    0.654917599338   5.204107939970  -2.719005409357 Bohr   0.0
[INPUT]  8 H      0.372379614500   3.617699659800  -2.123091150300 AA    0.703695485776   6.836461557954  -4.012060811555 Bohr   0.0
[INPUT]  9 O      1.046960908100  -2.642534200000   0.961324672200 AA    1.978469379435  -4.993665912797   1.816640347245 Bohr   0.0
[INPUT] 10 O     -0.399190300300   2.220198244100   1.694471698900 AA   -0.754360339150   4.195566623589   3.202087436747 Bohr   0.0
[INPUT] 11 O      1.782306321700   1.685553244600   1.431399507200 AA    3.368070818094   3.185234000666   2.704953043445 Bohr   0.0
[INPUT] 12 C      0.831955037900   2.268517865100   1.983951274000 AA    1.572167169583   4.286877473722   3.749124552342 Bohr   0.0
[INPUT] 13 H      1.076728588500   2.913342016700   2.843786805300 AA    2.034722142755   5.505418518751   5.373978218669 Bohr   0.0
[INPUT] 14 O     -2.079556156200  -1.388288080900  -1.347085675300 AA   -3.929791595871  -2.623484254899  -2.545622992642 Bohr   0.0
[INPUT] 15 O     -2.580923634700   0.759908859500  -0.849227704000 AA   -4.877238818000   1.436019624086  -1.604807777953 Bohr   0.0
[INPUT] 16 C     -2.753895325000  -0.346567468600  -1.438835699000 AA   -5.204107939970  -0.654917599338  -2.719005409357 Bohr   0.0
[INPUT] 17 H     -3.617699659800  -0.372379614500  -2.123091150300 AA   -6.836461557954  -0.703695485776  -4.012060811555 Bohr   0.0
[INPUT] 18 Fe    -0.379874189300  -1.792603362900  -0.200337730300 AA   -0.717858179568  -3.387529405855  -0.378583442684 Bohr   0.0
[INPUT] 19 O      0.642223180300  -2.237796553000  -1.892914517600 AA    1.213625921614  -4.228822607666  -3.577090015477 Bohr   0.0
[INPUT] 20 Fe     1.792603362900   0.379874189300  -0.200337730300 AA    3.387529405855   0.717858179568  -0.378583442684 Bohr   0.0
[INPUT] 21 O      2.237796553000  -0.642223180300  -1.892914517600 AA    4.228822607666  -1.213625921614  -3.577090015477 Bohr   0.0
[INPUT] 22 O      2.642534200000  -1.046960908100   0.961324672200 AA    4.993665912797  -1.978469379435   1.816640347245 Bohr   0.0
[INPUT] 23 Al    -1.236271642100   1.236271642100   0.350650148000 AA   -2.336214819135   2.336214819135   0.662632745258 Bohr   0.0
[INPUT] 24 O     -0.044950195400   0.044950195400   0.012762141300 AA   -0.084943558552   0.084943558552   0.024116951820 Bohr   0.0
[INPUT] 25 C      1.645528685000  -1.645528685000  -2.357112465400 AA    3.109598544766  -3.109598544766  -4.454297004404 Bohr   0.0
[INPUT] 26 H      2.056906298400  -2.056906298400  -3.294571291600 AA    3.886989567869  -3.886989567869  -6.225837438979 Bohr   0.0
[INPUT] 27 C      2.160924281100  -2.160924281100   1.277584186800 AA    4.083555067202  -4.083555067202   2.414284214127 Bohr   0.0
[INPUT] 28 H      2.796080543300  -2.796080543300   1.918244302400 AA    5.283826449062  -5.283826449062   3.624956371543 Bohr   0.0

nuclear repulsion = 3455.30471244119
number of shells = 192
number of NR pGTOs = 1065
number of NR cGTOs = 674
basis = {'C': 'cc-pvdz', 'H': 'cc-pvdz', 'O': 'cc-pvtz', 'Al': 'cc-pvtz', 'Fe': 'cc-pvtz'}
ecp = {}
CPU time:         1.79


******** <class 'pyscf.df.df_jk.DFROHF'> ********
method = DFROHF
initial guess = atom
damping factor = 0
level_shift factor = 0
DIIS = <class 'pyscf.scf.diis.CDIIS'>
diis_start_cycle = 1
diis_space = 8
diis_damp = 0
SCF conv_tol = 1e-09
SCF conv_tol_grad = None
SCF max_cycles = 1
direct_scf = False
chkfile to save SCF result = /scratch/local/jobs/17478228/tmpme_oti65
max_memory 128000 MB (current use 76 MB)
num. doubly occ = 101  num. singly occ = 9
Set gradient conv threshold to 3.16228e-05
Initial guess from the superpostion of atomic densties.
Spherically averaged atomic HF for {'C', 'Al', 'O', 'H', 'Fe'}


******** <class 'pyscf.scf.atom_hf.AtomSphAverageRHF'> ********
method = AtomSphAverageRHF
initial guess = minao
damping factor = 0
level_shift factor = 0
DIIS = <class 'pyscf.scf.diis.CDIIS'>
diis_start_cycle = 1
diis_space = 8
diis_damp = 0
SCF conv_tol = 1e-09
SCF conv_tol_grad = None
SCF max_cycles = 50
direct_scf = True
direct_scf_tol = 1e-13
chkfile to save SCF result = /scratch/local/jobs/17478228/tmpkz6s5oi9
max_memory 128000 MB (current use 76 MB)
atom = O
Set gradient conv threshold to 3.16228e-05
Initial guess from minao.
init E= -74.2776996160121
cycle= 1 E= -74.2879632957298  delta_E= -0.0103  |g|=    0  |ddm|= 0.12
cycle= 2 E= -74.2889455295059  delta_E= -0.000982  |g|=    0  |ddm|= 0.0571
cycle= 3 E= -74.2891874928551  delta_E= -0.000242  |g|=    0  |ddm|= 0.0164
cycle= 4 E= -74.2891907662377  delta_E= -3.27e-06  |g|=    0  |ddm|= 0.00334
cycle= 5 E= -74.2891907667002  delta_E= -4.62e-10  |g|=    0  |ddm|= 2.73e-05
Extra cycle  E= -74.2891907667016  delta_E= -1.41e-12  |g|=    0  |ddm|= 2.08e-06
Atomic HF for atom  O  converged. SCF energy = -74.2891907667016



******** <class 'pyscf.scf.atom_hf.AtomSphAverageRHF'> ********
method = AtomSphAverageRHF
initial guess = minao
damping factor = 0
level_shift factor = 0
DIIS = <class 'pyscf.scf.diis.CDIIS'>
diis_start_cycle = 1
diis_space = 8
diis_damp = 0
SCF conv_tol = 1e-09
SCF conv_tol_grad = None
SCF max_cycles = 50
direct_scf = True
direct_scf_tol = 1e-13
chkfile to save SCF result = /scratch/local/jobs/17478228/tmpyjh3ordo
max_memory 128000 MB (current use 98 MB)
atom = C
Set gradient conv threshold to 3.16228e-05
Initial guess from minao.
init E= -37.2786538116583
cycle= 1 E= -37.3229525149147  delta_E= -0.0443  |g|=    0  |ddm|= 0.403
cycle= 2 E= -37.3269979443145  delta_E= -0.00405  |g|=    0  |ddm|= 0.158
cycle= 3 E= -37.3274168905011  delta_E= -0.000419  |g|=    0  |ddm|= 0.0324
cycle= 4 E= -37.3274218270201  delta_E= -4.94e-06  |g|=    0  |ddm|= 0.00651
cycle= 5 E= -37.3274218271774  delta_E= -1.57e-10  |g|=    0  |ddm|= 2.35e-05
Extra cycle  E= -37.3274218271781  delta_E= -6.54e-13  |g|=    0  |ddm|= 2.26e-06
Atomic HF for atom  C  converged. SCF energy = -37.3274218271781



******** 1 electron system ********
Atomic HF for atom  H  converged. SCF energy = -0.499278403419583



******** <class 'pyscf.scf.atom_hf.AtomSphAverageRHF'> ********
method = AtomSphAverageRHF
initial guess = minao
damping factor = 0
level_shift factor = 0
DIIS = <class 'pyscf.scf.diis.CDIIS'>
diis_start_cycle = 1
diis_space = 8
diis_damp = 0
SCF conv_tol = 1e-09
SCF conv_tol_grad = None
SCF max_cycles = 50
direct_scf = True
direct_scf_tol = 1e-13
chkfile to save SCF result = /scratch/local/jobs/17478228/tmpitk4y_r_
max_memory 128000 MB (current use 100 MB)
atom = Fe
Set gradient conv threshold to 3.16228e-05
Initial guess from minao.
init E= -1260.96738533155
cycle= 1 E= -1256.37714318082  delta_E= 4.59  |g|=    0  |ddm|= 4.24
cycle= 2 E= -1255.54237595451  delta_E= 0.835  |g|=    0  |ddm|=   15
cycle= 3 E= -1260.89038467173  delta_E= -5.35  |g|=    0  |ddm|= 13.7
cycle= 4 E= -1261.57047534209  delta_E= -0.68  |g|=    0  |ddm|= 0.824
cycle= 5 E= -1261.57622492119  delta_E= -0.00575  |g|=    0  |ddm|= 0.301
cycle= 6 E= -1261.57666902675  delta_E= -0.000444  |g|=    0  |ddm|= 0.0322
cycle= 7 E= -1261.57674274459  delta_E= -7.37e-05  |g|=    0  |ddm|= 0.0137
cycle= 8 E= -1261.57674388082  delta_E= -1.14e-06  |g|=    0  |ddm|= 0.00344
cycle= 9 E= -1261.57674388923  delta_E= -8.41e-09  |g|=    0  |ddm|= 0.000127
cycle= 10 E= -1261.57674388923  delta_E= -9.09e-13  |g|=    0  |ddm|= 3.35e-06
Extra cycle  E= -1261.57674388923  delta_E= 1.59e-12  |g|=    0  |ddm|= 3.97e-07
Atomic HF for atom  Fe  converged. SCF energy = -1261.57674388923



******** <class 'pyscf.scf.atom_hf.AtomSphAverageRHF'> ********
method = AtomSphAverageRHF
initial guess = minao
damping factor = 0
level_shift factor = 0
DIIS = <class 'pyscf.scf.diis.CDIIS'>
diis_start_cycle = 1
diis_space = 8
diis_damp = 0
SCF conv_tol = 1e-09
SCF conv_tol_grad = None
SCF max_cycles = 50
direct_scf = True
direct_scf_tol = 1e-13
chkfile to save SCF result = /scratch/local/jobs/17478228/tmpgkevt56v
max_memory 128000 MB (current use 146 MB)
atom = Al
Set gradient conv threshold to 3.16228e-05
Initial guess from minao.
init E= -241.752580224975
cycle= 1 E= -241.774394279578  delta_E= -0.0218  |g|=    0  |ddm|= 0.33
cycle= 2 E= -241.774822880148  delta_E= -0.000429  |g|=    0  |ddm|= 0.0589
cycle= 3 E= -241.77484101355  delta_E= -1.81e-05  |g|=    0  |ddm|= 0.00725
cycle= 4 E= -241.774841578884  delta_E= -5.65e-07  |g|=    0  |ddm|= 0.00216
cycle= 5 E= -241.774841604663  delta_E= -2.58e-08  |g|=    0  |ddm|= 0.000719
cycle= 6 E= -241.774841604811  delta_E= -1.48e-10  |g|=    0  |ddm|= 5.97e-05
Extra cycle  E= -241.774841604812  delta_E= -1.48e-12  |g|=    0  |ddm|= 4.44e-06
Atomic HF for atom  Al  converged. SCF energy = -241.774841604812

******** <class 'pyscf.df.df.DF'> ********
auxbasis = None
max_memory = 128000
Even tempered Gaussians are generated as DF auxbasis for  H C Fe Al O
init E= -3975.68788353038
  HOMO = -0.0424478076029068  LUMO = -0.0316668341931083
cycle= 1 E= -3969.65777955844  delta_E= 6.03  |g|= 3.14  |ddm|= 4.67
SCF not converged.
SCF energy = -3969.65777955844
Built 4 spin(local Sz)-shuffled LAS states from 1 reference LAS states
Built 28 singly-excited LAS states from 5 reference LAS states
Entering product-state fixed-point CI iteration
Cycle 0: max grad = 1.884708e-01 ; sigma = 0.000000e+00
Cycle 1: max grad = 1.229424e-05 ; sigma = 3.346305e-02
Cycle 2: max grad = 2.560975e-06 ; sigma = 8.625278e-11
Product_state fixed-point CI iteration converged after 2 cycles
Entering product-state fixed-point CI iteration
Cycle 0: max grad = 1.884708e-01 ; sigma = 0.000000e+00
Cycle 1: max grad = 5.393863e-06 ; sigma = 3.348211e-02
Cycle 2: max grad = 2.369173e-06 ; sigma = 5.258016e-12
Product_state fixed-point CI iteration converged after 2 cycles
Entering product-state fixed-point CI iteration
Cycle 0: max grad = 1.884708e-01 ; sigma = 0.000000e+00
Cycle 1: max grad = 3.475708e-06 ; sigma = 3.349033e-02
Cycle 2: max grad = 2.276478e-06 ; sigma = 6.231460e-12
Product_state fixed-point CI iteration converged after 2 cycles
Entering product-state fixed-point CI iteration
Cycle 0: max grad = 1.884708e-01 ; sigma = 0.000000e+00
Cycle 1: max grad = 3.522775e-06 ; sigma = 3.348759e-02
Cycle 2: max grad = 2.308122e-06 ; sigma = 8.569145e-12
Product_state fixed-point CI iteration converged after 2 cycles
Entering product-state fixed-point CI iteration
Cycle 0: max grad = 1.884708e-01 ; sigma = 0.000000e+00
Cycle 1: max grad = 8.368410e-06 ; sigma = 3.347392e-02
Cycle 2: max grad = 2.455328e-06 ; sigma = 1.881517e-11
Product_state fixed-point CI iteration converged after 2 cycles
Entering product-state fixed-point CI iteration
Cycle 0: max grad = 2.784311e-01 ; sigma = 0.000000e+00
Cycle 1: max grad = 4.634879e-05 ; sigma = 5.318269e-02
Cycle 2: max grad = 5.292951e-07 ; sigma = 5.085564e-08
Cycle 3: max grad = 8.523433e-10 ; sigma = 6.252776e-13
Product_state fixed-point CI iteration converged after 3 cycles
Entering product-state fixed-point CI iteration
Cycle 0: max grad = 3.067236e-01 ; sigma = 0.000000e+00
Cycle 1: max grad = 5.992311e-04 ; sigma = 1.169371e-01
Cycle 2: max grad = 2.250365e-06 ; sigma = 4.611400e-06
Cycle 3: max grad = 9.943609e-07 ; sigma = 9.102052e-12
Product_state fixed-point CI iteration converged after 3 cycles
Entering product-state fixed-point CI iteration
Cycle 0: max grad = 2.327562e-01 ; sigma = 0.000000e+00
Cycle 1: max grad = 5.648643e-04 ; sigma = 4.391494e-02
Cycle 2: max grad = 4.292256e-06 ; sigma = 2.400541e-06
Cycle 3: max grad = 8.594107e-07 ; sigma = 5.908163e-12
Product_state fixed-point CI iteration converged after 3 cycles
Entering product-state fixed-point CI iteration
Cycle 0: max grad = 3.083310e-01 ; sigma = 0.000000e+00
Cycle 1: max grad = 1.806373e-04 ; sigma = 5.815313e-03
Cycle 2: max grad = 3.471513e-06 ; sigma = 1.001354e-06
Cycle 3: max grad = 3.580480e-06 ; sigma = 1.041229e-10
Cycle 4: max grad = 1.643296e-06 ; sigma = 2.607692e-12
Product_state fixed-point CI iteration converged after 4 cycles
Entering product-state fixed-point CI iteration
Cycle 0: max grad = 2.551366e-01 ; sigma = 0.000000e+00
Cycle 1: max grad = 2.036378e-04 ; sigma = 8.150694e-02
Cycle 2: max grad = 1.928086e-06 ; sigma = 9.333423e-07
Cycle 3: max grad = 8.431799e-07 ; sigma = 2.671143e-10
Cycle 4: max grad = 4.869203e-07 ; sigma = 1.116618e-11
Product_state fixed-point CI iteration converged after 4 cycles
Entering product-state fixed-point CI iteration
Cycle 0: max grad = 3.077537e-01 ; sigma = 0.000000e+00
Cycle 1: max grad = 3.556113e-04 ; sigma = 3.436487e-02
Cycle 2: max grad = 1.955002e-06 ; sigma = 2.408482e-07
Cycle 3: max grad = 1.232657e-06 ; sigma = 1.877254e-11
Product_state fixed-point CI iteration converged after 3 cycles
Entering product-state fixed-point CI iteration
Cycle 0: max grad = 2.785850e-01 ; sigma = 0.000000e+00
Cycle 1: max grad = 4.595661e-05 ; sigma = 5.318012e-02
Cycle 2: max grad = 5.618072e-07 ; sigma = 5.927163e-08
Cycle 3: max grad = 7.166702e-10 ; sigma = 6.963319e-13
Product_state fixed-point CI iteration converged after 3 cycles
Entering product-state fixed-point CI iteration
Cycle 0: max grad = 3.067052e-01 ; sigma = 0.000000e+00
Cycle 1: max grad = 5.861469e-04 ; sigma = 1.170948e-01
Cycle 2: max grad = 2.135161e-06 ; sigma = 4.179263e-06
Cycle 3: max grad = 1.320258e-06 ; sigma = 9.009682e-12
Product_state fixed-point CI iteration converged after 3 cycles
Entering product-state fixed-point CI iteration
Cycle 0: max grad = 2.327512e-01 ; sigma = 0.000000e+00
Cycle 1: max grad = 5.626359e-04 ; sigma = 4.458519e-02
Cycle 2: max grad = 4.646999e-06 ; sigma = 4.939012e-06
Cycle 3: max grad = 6.020661e-07 ; sigma = 1.312372e-11
Product_state fixed-point CI iteration converged after 3 cycles
Entering product-state fixed-point CI iteration
Cycle 0: max grad = 3.083128e-01 ; sigma = 0.000000e+00
Cycle 1: max grad = 2.345229e-04 ; sigma = 5.828458e-03
Cycle 2: max grad = 5.566392e-06 ; sigma = 1.777866e-06
Cycle 3: max grad = 1.318146e-06 ; sigma = 3.041549e-10
Cycle 4: max grad = 1.083318e-06 ; sigma = 3.360867e-12
Product_state fixed-point CI iteration converged after 4 cycles
Entering product-state fixed-point CI iteration
Cycle 0: max grad = 2.550410e-01 ; sigma = 0.000000e+00
Cycle 1: max grad = 2.379875e-04 ; sigma = 8.171111e-02
Cycle 2: max grad = 1.927086e-06 ; sigma = 1.317811e-06
Cycle 3: max grad = 9.762213e-07 ; sigma = 3.389893e-10
Cycle 4: max grad = 5.648514e-07 ; sigma = 1.481126e-11
Product_state fixed-point CI iteration converged after 4 cycles
Entering product-state fixed-point CI iteration
Cycle 0: max grad = 3.077285e-01 ; sigma = 0.000000e+00
Cycle 1: max grad = 3.454360e-04 ; sigma = 3.460276e-02
Cycle 2: max grad = 2.317995e-06 ; sigma = 4.272844e-07
Cycle 3: max grad = 1.132493e-06 ; sigma = 8.874679e-12
Product_state fixed-point CI iteration converged after 3 cycles
Entering product-state fixed-point CI iteration
Cycle 0: max grad = 2.786705e-01 ; sigma = 0.000000e+00
Cycle 1: max grad = 4.651225e-05 ; sigma = 5.317862e-02
Cycle 2: max grad = 5.794670e-07 ; sigma = 6.407415e-08
Cycle 3: max grad = 6.451030e-10 ; sigma = 5.968559e-13
Product_state fixed-point CI iteration converged after 3 cycles
Entering product-state fixed-point CI iteration
Cycle 0: max grad = 3.067015e-01 ; sigma = 0.000000e+00
Cycle 1: max grad = 5.835233e-04 ; sigma = 1.171264e-01
Cycle 2: max grad = 2.112375e-06 ; sigma = 4.118257e-06
Cycle 3: max grad = 1.202589e-06 ; sigma = 7.418066e-12
Product_state fixed-point CI iteration converged after 3 cycles
Entering product-state fixed-point CI iteration
Cycle 0: max grad = 2.327502e-01 ; sigma = 0.000000e+00
Cycle 1: max grad = 5.629732e-04 ; sigma = 4.471923e-02
Cycle 2: max grad = 4.715402e-06 ; sigma = 5.349624e-06
Cycle 3: max grad = 5.617916e-07 ; sigma = 1.447020e-11
Product_state fixed-point CI iteration converged after 3 cycles
Entering product-state fixed-point CI iteration
Cycle 0: max grad = 3.083092e-01 ; sigma = 0.000000e+00
Cycle 1: max grad = 2.491446e-04 ; sigma = 5.831027e-03
Cycle 2: max grad = 6.002161e-06 ; sigma = 1.870328e-06
Cycle 3: max grad = 1.760538e-06 ; sigma = 3.921841e-10
Cycle 4: max grad = 1.220893e-06 ; sigma = 1.052314e-11
Product_state fixed-point CI iteration converged after 4 cycles
Entering product-state fixed-point CI iteration
Cycle 0: max grad = 2.550219e-01 ; sigma = 0.000000e+00
Cycle 1: max grad = 2.449739e-04 ; sigma = 8.175297e-02
Cycle 2: max grad = 1.955722e-06 ; sigma = 1.402521e-06
Cycle 3: max grad = 1.005238e-06 ; sigma = 3.552145e-10
Cycle 4: max grad = 5.831845e-07 ; sigma = 1.567457e-11
Product_state fixed-point CI iteration converged after 4 cycles
Entering product-state fixed-point CI iteration
Cycle 0: max grad = 3.077235e-01 ; sigma = 0.000000e+00
Cycle 1: max grad = 3.433519e-04 ; sigma = 3.465135e-02
Cycle 2: max grad = 2.389028e-06 ; sigma = 4.710340e-07
Cycle 3: max grad = 1.062282e-06 ; sigma = 6.551204e-12
Product_state fixed-point CI iteration converged after 3 cycles
Entering product-state fixed-point CI iteration
Cycle 0: max grad = 2.786876e-01 ; sigma = 0.000000e+00
Cycle 1: max grad = 4.673089e-05 ; sigma = 5.317831e-02
Cycle 2: max grad = 5.829607e-07 ; sigma = 6.504438e-08
Cycle 3: max grad = 6.311468e-10 ; sigma = 6.465939e-13
Product_state fixed-point CI iteration converged after 3 cycles
Entering product-state fixed-point CI iteration
Cycle 0: max grad = 3.067125e-01 ; sigma = 0.000000e+00
Cycle 1: max grad = 5.913872e-04 ; sigma = 1.170316e-01
Cycle 2: max grad = 2.179901e-06 ; sigma = 4.326966e-06
Cycle 3: max grad = 2.905984e-07 ; sigma = 7.268852e-12
Product_state fixed-point CI iteration converged after 3 cycles
Entering product-state fixed-point CI iteration
Cycle 0: max grad = 2.327532e-01 ; sigma = 0.000000e+00
Cycle 1: max grad = 5.619537e-04 ; sigma = 4.431709e-02
Cycle 2: max grad = 4.507687e-06 ; sigma = 4.019992e-06
Cycle 3: max grad = 6.936838e-07 ; sigma = 1.057288e-11
Product_state fixed-point CI iteration converged after 3 cycles
Entering product-state fixed-point CI iteration
Cycle 0: max grad = 3.083201e-01 ; sigma = 0.000000e+00
Cycle 1: max grad = 2.055908e-04 ; sigma = 5.823260e-03
Cycle 2: max grad = 4.711353e-06 ; sigma = 1.531160e-06
Cycle 3: max grad = 2.353117e-06 ; sigma = 2.384013e-10
Cycle 4: max grad = 1.042747e-06 ; sigma = 9.158896e-12
Product_state fixed-point CI iteration converged after 4 cycles
Entering product-state fixed-point CI iteration
Cycle 0: max grad = 2.550792e-01 ; sigma = 0.000000e+00
Cycle 1: max grad = 2.241311e-04 ; sigma = 8.162841e-02
Cycle 2: max grad = 1.913730e-06 ; sigma = 1.156262e-06
Cycle 3: max grad = 9.208399e-07 ; sigma = 3.084679e-10
Cycle 4: max grad = 5.292846e-07 ; sigma = 1.312728e-11
Product_state fixed-point CI iteration converged after 4 cycles
Entering product-state fixed-point CI iteration
Cycle 0: max grad = 3.077386e-01 ; sigma = 0.000000e+00
Cycle 1: max grad = 3.495559e-04 ; sigma = 3.450660e-02
Cycle 2: max grad = 2.174276e-06 ; sigma = 3.461726e-07
Cycle 3: max grad = 1.213587e-06 ; sigma = 1.325873e-11
Product_state fixed-point CI iteration converged after 3 cycles
Entering product-state fixed-point CI iteration
Cycle 0: max grad = 2.786363e-01 ; sigma = 0.000000e+00
Cycle 1: max grad = 4.607566e-05 ; sigma = 5.317923e-02
Cycle 2: max grad = 5.724407e-07 ; sigma = 6.214308e-08
Cycle 3: max grad = 6.733782e-10 ; sigma = 6.608047e-13
Product_state fixed-point CI iteration converged after 3 cycles
Entering product-state fixed-point CI iteration
Cycle 0: max grad = 2.327602e-01 ; sigma = 0.000000e+00
Cycle 1: max grad = 6.209126e-04 ; sigma = 4.337872e-02
Cycle 2: max grad = 3.992423e-06 ; sigma = 1.978466e-07
Cycle 3: max grad = 1.137854e-06 ; sigma = 3.982592e-12
Product_state fixed-point CI iteration converged after 3 cycles
Entering product-state fixed-point CI iteration
Cycle 0: max grad = 3.077738e-01 ; sigma = 0.000000e+00
Cycle 1: max grad = 3.634427e-04 ; sigma = 3.418067e-02
Cycle 2: max grad = 3.346335e-06 ; sigma = 1.317946e-07
Cycle 3: max grad = 4.962140e-07 ; sigma = 9.571011e-12
Product_state fixed-point CI iteration converged after 3 cycles
Entering product-state fixed-point CI iteration
Cycle 0: max grad = 2.785166e-01 ; sigma = 0.000000e+00
Cycle 1: max grad = 4.605856e-05 ; sigma = 5.318129e-02
Cycle 2: max grad = 5.474639e-07 ; sigma = 5.549293e-08
Cycle 3: max grad = 7.759521e-10 ; sigma = 5.897505e-13
Product_state fixed-point CI iteration converged after 3 cycles
LASSCF state-average energy = -3971.89018525224
LASSCF state 0 energy = -3971.89018525224
LASSCF state 1 energy = -3971.89049467745
LASSCF state 2 energy = -3971.8906273398
LASSCF state 3 energy = -3971.89058311557
LASSCF state 4 energy = -3971.89036204604
LASSCF state 5 energy = -3969.48093908276
LASSCF state 6 energy = -3970.98995513759
LASSCF state 7 energy = -3969.569277641
LASSCF state 8 energy = -3971.5111195471
LASSCF state 9 energy = -3969.35032714229
LASSCF state 10 energy = -3971.64263382622
LASSCF state 11 energy = -3969.48199401442
LASSCF state 12 energy = -3970.99011278563
LASSCF state 13 energy = -3969.56971596364
LASSCF state 14 energy = -3971.51146460594
LASSCF state 15 energy = -3969.3507335344
LASSCF state 16 energy = -3971.64312475168
LASSCF state 17 energy = -3969.48258018069
LASSCF state 18 energy = -3970.99014433942
LASSCF state 19 energy = -3969.56980395116
LASSCF state 20 energy = -3971.51153490949
LASSCF state 21 energy = -3969.35081586567
LASSCF state 22 energy = -3971.64322411903
LASSCF state 23 energy = -3969.48269742185
LASSCF state 24 energy = -3970.99004970236
LASSCF state 25 energy = -3969.56954031213
LASSCF state 26 energy = -3971.51132530586
LASSCF state 27 energy = -3969.35056993026
LASSCF state 28 energy = -3971.64292719394
LASSCF state 29 energy = -3969.48234570627
LASSCF state 30 energy = -3969.56892890982
LASSCF state 31 energy = -3971.64224828029
LASSCF state 32 energy = -3969.48152512913
Entering product-state fixed-point CI iteration
Cycle 0: max grad = 1.606777e+03 ; sigma = 0.000000e+00
Cycle 1: max grad = 1.545878e-06 ; sigma = 6.295409e-11
Product_state fixed-point CI iteration converged after 1 cycles
Entering product-state fixed-point CI iteration
Cycle 0: max grad = 1.606838e+03 ; sigma = 0.000000e+00
Cycle 1: max grad = 1.611812e-06 ; sigma = 5.988454e-11
Product_state fixed-point CI iteration converged after 1 cycles
Entering product-state fixed-point CI iteration
Cycle 0: max grad = 1.606865e+03 ; sigma = 0.000000e+00
Cycle 1: max grad = 2.573008e-06 ; sigma = 5.862688e-11
Product_state fixed-point CI iteration converged after 1 cycles
Entering product-state fixed-point CI iteration
Cycle 0: max grad = 1.606856e+03 ; sigma = 0.000000e+00
Cycle 1: max grad = 2.505756e-06 ; sigma = 5.903900e-11
Product_state fixed-point CI iteration converged after 1 cycles
Entering product-state fixed-point CI iteration
Cycle 0: max grad = 1.606812e+03 ; sigma = 0.000000e+00
Cycle 1: max grad = 2.095605e-06 ; sigma = 6.117062e-11
Product_state fixed-point CI iteration converged after 1 cycles
Entering product-state fixed-point CI iteration
Cycle 0: max grad = 1.030162e+03 ; sigma = 0.000000e+00
Cycle 1: max grad = 9.182926e-12 ; sigma = 3.552714e-15
Product_state fixed-point CI iteration converged after 1 cycles
Entering product-state fixed-point CI iteration
Cycle 0: max grad = 1.495749e+03 ; sigma = 0.000000e+00
Cycle 1: max grad = 1.283740e-05 ; sigma = 9.245582e-11
Product_state fixed-point CI iteration converged after 1 cycles
Entering product-state fixed-point CI iteration
Cycle 0: max grad = 1.135669e+03 ; sigma = 0.000000e+00
Cycle 1: max grad = 6.502904e-07 ; sigma = 6.606271e-11
Product_state fixed-point CI iteration converged after 1 cycles
Entering product-state fixed-point CI iteration
Cycle 0: max grad = 1.043836e+03 ; sigma = 0.000000e+00
Cycle 1: max grad = 2.803961e-03 ; sigma = 1.180172e-03
Cycle 2: max grad = 5.442422e-04 ; sigma = 1.799094e-07
Cycle 3: max grad = 2.081130e-04 ; sigma = 1.075762e-11
Cycle 4: max grad = 2.172625e-04 ; sigma = 8.739676e-13
Cycle 5: max grad = 1.835751e-05 ; sigma = 2.344791e-13
Product_state fixed-point CI iteration converged after 5 cycles
Entering product-state fixed-point CI iteration
Cycle 0: max grad = 1.039803e+03 ; sigma = 0.000000e+00
Cycle 1: max grad = 1.929743e-04 ; sigma = 1.215504e-03
Cycle 2: max grad = 1.690387e-06 ; sigma = 4.569068e-07
Cycle 3: max grad = 1.193261e-06 ; sigma = 2.546585e-11
Product_state fixed-point CI iteration converged after 3 cycles
Entering product-state fixed-point CI iteration
Cycle 0: max grad = 1.319194e+03 ; sigma = 0.000000e+00
Cycle 1: max grad = 1.447909e-02 ; sigma = 3.280576e-11
Cycle 2: max grad = 1.118349e-04 ; sigma = 5.684342e-14
Cycle 3: max grad = 2.106234e-04 ; sigma = 4.263256e-14
Cycle 4: max grad = 2.296359e-05 ; sigma = 7.105427e-15
Product_state fixed-point CI iteration converged after 4 cycles
Entering product-state fixed-point CI iteration
Cycle 0: max grad = 1.030140e+03 ; sigma = 0.000000e+00
Cycle 1: max grad = 8.076899e-12 ; sigma = 3.552714e-14
Product_state fixed-point CI iteration converged after 1 cycles
Entering product-state fixed-point CI iteration
Cycle 0: max grad = 1.495256e+03 ; sigma = 0.000000e+00
Cycle 1: max grad = 1.009812e-05 ; sigma = 9.054446e-11
Product_state fixed-point CI iteration converged after 1 cycles
Entering product-state fixed-point CI iteration
Cycle 0: max grad = 1.135718e+03 ; sigma = 0.000000e+00
Cycle 1: max grad = 8.877160e-07 ; sigma = 8.443735e-11
Product_state fixed-point CI iteration converged after 1 cycles
Entering product-state fixed-point CI iteration
Cycle 0: max grad = 1.319649e+03 ; sigma = 0.000000e+00
Cycle 1: max grad = 2.530210e-03 ; sigma = 1.431940e-03
Cycle 2: max grad = 9.239933e-04 ; sigma = 5.088460e-07
Cycle 3: max grad = 9.680168e-05 ; sigma = 3.470291e-10
Cycle 4: max grad = 1.050831e-05 ; sigma = 2.287948e-12
Product_state fixed-point CI iteration converged after 4 cycles
Entering product-state fixed-point CI iteration
Cycle 0: max grad = 1.027931e+03 ; sigma = 0.000000e+00
Cycle 1: max grad = 1.720158e-04 ; sigma = 1.541943e-03
Cycle 2: max grad = 1.187902e-06 ; sigma = 2.170460e-07
Cycle 3: max grad = 8.364405e-07 ; sigma = 1.986677e-11
Product_state fixed-point CI iteration converged after 3 cycles
Entering product-state fixed-point CI iteration
Cycle 0: max grad = 1.029699e+03 ; sigma = 0.000000e+00
Cycle 1: max grad = 1.849314e-03 ; sigma = 2.378897e-11
Cycle 2: max grad = 1.697041e-04 ; sigma = 1.776357e-13
Cycle 3: max grad = 5.439307e-04 ; sigma = 1.492140e-13
Cycle 4: max grad = 3.912843e-05 ; sigma = 1.918465e-13
Product_state fixed-point CI iteration converged after 4 cycles
Entering product-state fixed-point CI iteration
Cycle 0: max grad = 1.030128e+03 ; sigma = 0.000000e+00
Cycle 1: max grad = 7.703440e-12 ; sigma = 3.552714e-15
Product_state fixed-point CI iteration converged after 1 cycles
Entering product-state fixed-point CI iteration
Cycle 0: max grad = 1.495171e+03 ; sigma = 0.000000e+00
Cycle 1: max grad = 1.828113e-05 ; sigma = 7.779022e-11
Product_state fixed-point CI iteration converged after 1 cycles
Entering product-state fixed-point CI iteration
Cycle 0: max grad = 1.135728e+03 ; sigma = 0.000000e+00
Cycle 1: max grad = 9.612624e-07 ; sigma = 9.219292e-11
Product_state fixed-point CI iteration converged after 1 cycles
Entering product-state fixed-point CI iteration
Cycle 0: max grad = 1.320370e+03 ; sigma = 0.000000e+00
Cycle 1: max grad = 2.440116e-03 ; sigma = 1.484257e-03
Cycle 2: max grad = 3.109227e-04 ; sigma = 8.707194e-07
Cycle 3: max grad = 1.566448e-04 ; sigma = 8.765682e-10
Cycle 4: max grad = 6.303043e-06 ; sigma = 2.167155e-12
Product_state fixed-point CI iteration converged after 4 cycles
Entering product-state fixed-point CI iteration
Cycle 0: max grad = 1.025506e+03 ; sigma = 0.000000e+00
Cycle 1: max grad = 1.679547e-04 ; sigma = 1.608640e-03
Cycle 2: max grad = 1.097749e-06 ; sigma = 1.826414e-07
Cycle 3: max grad = 7.618411e-07 ; sigma = 1.885070e-11
Product_state fixed-point CI iteration converged after 3 cycles
Entering product-state fixed-point CI iteration
Cycle 0: max grad = 1.029693e+03 ; sigma = 0.000000e+00
Cycle 1: max grad = 2.001468e-03 ; sigma = 2.194867e-11
Cycle 2: max grad = 1.604199e-04 ; sigma = 2.629008e-13
Cycle 3: max grad = 1.023053e-04 ; sigma = 1.918465e-13
Cycle 4: max grad = 4.918013e-05 ; sigma = 2.060574e-13
Product_state fixed-point CI iteration converged after 4 cycles
Entering product-state fixed-point CI iteration
Cycle 0: max grad = 1.030125e+03 ; sigma = 0.000000e+00
Cycle 1: max grad = 7.730178e-12 ; sigma = 1.065814e-14
Product_state fixed-point CI iteration converged after 1 cycles
Entering product-state fixed-point CI iteration
Cycle 0: max grad = 1.495449e+03 ; sigma = 0.000000e+00
Cycle 1: max grad = 1.350762e-05 ; sigma = 1.218581e-11
Product_state fixed-point CI iteration converged after 1 cycles
Entering product-state fixed-point CI iteration
Cycle 0: max grad = 1.343934e+03 ; sigma = 0.000000e+00
Cycle 1: max grad = 1.164150e-06 ; sigma = 7.365131e-11
Product_state fixed-point CI iteration converged after 1 cycles
Entering product-state fixed-point CI iteration
Cycle 0: max grad = 1.318186e+03 ; sigma = 0.000000e+00
Cycle 1: max grad = 1.094561e-02 ; sigma = 1.329262e-03
Cycle 2: max grad = 3.480245e-04 ; sigma = 9.446750e-08
Cycle 3: max grad = 3.700008e-04 ; sigma = 1.862333e-11
Cycle 4: max grad = 3.135783e-05 ; sigma = 2.415845e-13
Product_state fixed-point CI iteration converged after 4 cycles
Entering product-state fixed-point CI iteration
Cycle 0: max grad = 1.032731e+03 ; sigma = 0.000000e+00
Cycle 1: max grad = 1.802656e-04 ; sigma = 1.409890e-03
Cycle 2: max grad = 1.365479e-06 ; sigma = 2.990507e-07
Cycle 3: max grad = 9.499262e-07 ; sigma = 2.210143e-11
Product_state fixed-point CI iteration converged after 3 cycles
Entering product-state fixed-point CI iteration
Cycle 0: max grad = 1.029709e+03 ; sigma = 0.000000e+00
Cycle 1: max grad = 1.835573e-03 ; sigma = 2.757616e-11
Cycle 2: max grad = 1.343853e-03 ; sigma = 1.492140e-13
Cycle 3: max grad = 1.539769e-04 ; sigma = 1.421085e-13
Cycle 4: max grad = 4.981217e-05 ; sigma = 1.278977e-13
Product_state fixed-point CI iteration converged after 4 cycles
Entering product-state fixed-point CI iteration
Cycle 0: max grad = 1.030133e+03 ; sigma = 0.000000e+00
Cycle 1: max grad = 7.746273e-12 ; sigma = 9.947598e-14
Product_state fixed-point CI iteration converged after 1 cycles
Entering product-state fixed-point CI iteration
Cycle 0: max grad = 1.343554e+03 ; sigma = 0.000000e+00
Cycle 1: max grad = 1.089415e-06 ; sigma = 6.890843e-11
Product_state fixed-point CI iteration converged after 1 cycles
Entering product-state fixed-point CI iteration
Cycle 0: max grad = 1.314974e+03 ; sigma = 0.000000e+00
Cycle 1: max grad = 1.002728e-02 ; sigma = 1.082157e-11
Cycle 2: max grad = 2.107070e-04 ; sigma = 2.842171e-14
Cycle 3: max grad = 8.527032e-05 ; sigma = 5.684342e-14
Product_state fixed-point CI iteration converged after 3 cycles
Entering product-state fixed-point CI iteration
Cycle 0: max grad = 1.030150e+03 ; sigma = 0.000000e+00
Cycle 1: max grad = 8.541990e-12 ; sigma = 1.776357e-14
Product_state fixed-point CI iteration converged after 1 cycles
LASSCF state-average energy = -3971.8901852523
LASSCF state 0 energy = -3971.8901852523
LASSCF state 1 energy = -3971.89049467751
LASSCF state 2 energy = -3971.89062733986
LASSCF state 3 energy = -3971.89058311563
LASSCF state 4 energy = -3971.89036204611
LASSCF state 5 energy = -3969.48093908276
LASSCF state 6 energy = -3970.98995513768
LASSCF state 7 energy = -3969.56927764107
LASSCF state 8 energy = -3971.51229990126
LASSCF state 9 energy = -3969.35154310363
LASSCF state 10 energy = -3971.64263382626
LASSCF state 11 energy = -3969.48199401442
LASSCF state 12 energy = -3970.99011278572
LASSCF state 13 energy = -3969.56971596372
LASSCF state 14 energy = -3971.5128970515
LASSCF state 15 energy = -3969.3522756948
LASSCF state 16 energy = -3971.6431247517
LASSCF state 17 energy = -3969.48258018069
LASSCF state 18 energy = -3970.9901443395
LASSCF state 19 energy = -3969.56980395125
LASSCF state 20 energy = -3971.51302003568
LASSCF state 21 energy = -3969.35242468793
LASSCF state 22 energy = -3971.64322411905
LASSCF state 23 energy = -3969.48269742185
LASSCF state 24 energy = -3970.99004970238
LASSCF state 25 energy = -3969.56954031221
LASSCF state 26 energy = -3971.51265466075
LASSCF state 27 energy = -3969.35198011903
LASSCF state 28 energy = -3971.64292719396
LASSCF state 29 energy = -3969.48234570627
LASSCF state 30 energy = -3969.56892890989
LASSCF state 31 energy = -3971.6422482803
LASSCF state 32 energy = -3969.48152512913
LASSI op_o0 memory check: 3361223.475072 MB needed of 120028.59008 MB available (128000 MB max)
Symmetry analysis of 33 LAS rootspaces:
 ix            Energy  <S**2>  Neleca  Nelecb  Nelec   Wfnsym
  0  -3971.8901852523   4.750       6       5      11       A
  1  -3971.8904946775  11.750       6       5      11       A
  2  -3971.8906273399  14.750       6       5      11       A
  3  -3971.8905831156  13.750       6       5      11       A
  4  -3971.8903620461   8.750       6       5      11       A
  5  -3969.4809390828   5.750       6       5      11       A
  6  -3970.9899551377   3.750       6       5      11       A
  7  -3969.5692776411   8.750       6       5      11       A
  8  -3971.5122999013   3.750       6       5      11       A
  9  -3969.3515431036   9.750       6       5      11       A
 10  -3971.6426338263   8.750       6       5      11       A
 11  -3969.4819940144  14.750       6       5      11       A
 12  -3970.9901127857   8.750       6       5      11       A
 13  -3969.5697159637  13.750       6       5      11       A
 14  -3971.5128970515   8.750       6       5      11       A
 15  -3969.3522756948  14.750       6       5      11       A
 16  -3971.6431247517  13.750       6       5      11       A
 17  -3969.4825801807  19.750       6       5      11       A
 18  -3970.9901443395   9.750       6       5      11       A
 19  -3969.5698039513  14.750       6       5      11       A
 20  -3971.5130200357   9.750       6       5      11       A
 21  -3969.3524246879  15.750       6       5      11       A
 22  -3971.6432241191  14.750       6       5      11       A
 23  -3969.4826974219  20.750       6       5      11       A
 24  -3970.9900497024   6.750       6       5      11       A
 25  -3969.5695403122  11.750       6       5      11       A
 26  -3971.5126546607   6.750       6       5      11       A
 27  -3969.3519801190  12.750       6       5      11       A
 28  -3971.6429271940  11.750       6       5      11       A
 29  -3969.4823457063  17.750       6       5      11       A
 30  -3969.5689289099   4.750       6       5      11       A
 31  -3971.6422482803   4.750       6       5      11       A
 32  -3969.4815251291  10.750       6       5      11       A
Build + diag H matrix LASSI symmetry block 0
['neleca', 'nelecb', 'irrep'] = (6, 5, 0)
(33 rootspaces; 11913 states)
LASSI eigenvalues (11913 total):
 ix            Energy  <S**2>  Neleca  Nelecb  Wfnsym
  0  -3971.8917332380   0.750       6       5       A
  1  -3971.8916784922   3.750       6       5       A
  2  -3971.8915889245   8.750       6       5       A
  3  -3971.8914675758  15.750       6       5       A
  4  -3971.8913186982  24.750       6       5       A
  5  -3971.8721833481   0.750       6       5       A
  6  -3971.8720699423   3.750       6       5       A
  7  -3971.8718803111   8.750       6       5       A
  8  -3971.8716133126  15.750       6       5       A
  9  -3971.8712673908  24.750       6       5       A
 10  -3971.8709420297   0.750       6       5       A
 11  -3971.8708582464   3.750       6       5       A
 12  -3971.8707174375   8.750       6       5       A
 13  -3971.8705175530  15.750       6       5       A
 14  -3971.8702557066  24.750       6       5       A
 15  -3971.8472920488  24.750       6       5       A
 16  -3971.8471598779  15.750       6       5       A
 17  -3971.8470529304   8.750       6       5       A
 18  -3971.8469743762   3.750       6       5       A
 19  -3971.8469265109   0.750       6       5       A
 20  -3971.8254962002   0.750       6       5       A
 21  -3971.8253864918   3.750       6       5       A
 22  -3971.8252031785   8.750       6       5       A
 23  -3971.8249440318  15.750       6       5       A
 24  -3971.8246063807  24.750       6       5       A
 25  -3971.6436002247  24.750       6       5       A
 26  -3971.6429078543  15.750       6       5       A
 27  -3971.6423967481   8.750       6       5       A
 28  -3971.6420466838   3.750       6       5       A
 29  -3971.6418427148   0.750       6       5       A
 30  -3971.6416939390  24.750       6       5       A
 31  -3971.6405372049  15.750       6       5       A
 32  -3971.6396277739   8.750       6       5       A
 33  -3971.6389728990   3.750       6       5       A
 34  -3971.6385778400   0.750       6       5       A
 35  -3971.6357256701  24.750       6       5       A
 36  -3971.6345345633  15.750       6       5       A
 37  -3971.6335951627   8.750       6       5       A
 38  -3971.6329174947   3.750       6       5       A
 39  -3971.6325083048   0.750       6       5       A
 40  -3971.6269276742  24.750       6       5       A
 41  -3971.6265095177  15.750       6       5       A
 42  -3971.6261487905   8.750       6       5       A
 43  -3971.6258714000   3.750       6       5       A
 44  -3971.6256968913   0.750       6       5       A
 45  -3971.6008165053  24.750       6       5       A
 46  -3971.5994962249  15.750       6       5       A
 47  -3971.5984620852   8.750       6       5       A
 48  -3971.5977194516   3.750       6       5       A
 49  -3971.5972722600   0.750       6       5       A
 50  -3971.5140580881  15.750       6       5       A
 51  -3971.5134017370   8.750       6       5       A
 52  -3971.5129807811   3.750       6       5       A
 53  -3971.5127463489   0.750       6       5       A
 54  -3971.5120840360  15.750       6       5       A
 55  -3971.5116768729   8.750       6       5       A
 56  -3971.5115061963  15.750       6       5       A
 57  -3971.5114064065   3.750       6       5       A
 58  -3971.5112517376   0.750       6       5       A
 59  -3971.5102229201   8.750       6       5       A
 60  -3971.5101084858  15.750       6       5       A
 61  -3971.5095260466  15.750       6       5       A
 62  -3971.5095177776   8.750       6       5       A
 63  -3971.5093513285   3.750       6       5       A
 64  -3971.5091114143   3.750       6       5       A
 65  -3971.5088742760   0.750       6       5       A
 66  -3971.5088485974   0.750       6       5       A
 67  -3971.5088217925   8.750       6       5       A
 68  -3971.5083365561   3.750       6       5       A
 69  -3971.5080523977   0.750       6       5       A
 70  -3971.5076150313  15.750       6       5       A
 71  -3971.5065450270   8.750       6       5       A
 72  -3971.5057495607   3.750       6       5       A
 73  -3971.5055186433  15.750       6       5       A
 74  -3971.5052575004   0.750       6       5       A
 75  -3971.5042098646   8.750       6       5       A
 76  -3971.5035291403  15.750       6       5       A
 77  -3971.5033192428   3.750       6       5       A
 78  -3971.5028046674   0.750       6       5       A
 79  -3971.5027516017   8.750       6       5       A
 80  -3971.5022124258   3.750       6       5       A
 81  -3971.5018951087   0.750       6       5       A
 82  -3971.5016706681  15.750       6       5       A
 83  -3971.5005743486   8.750       6       5       A
 84  -3971.4997632136   3.750       6       5       A
 85  -3971.4992631422   0.750       6       5       A
 86  -3971.4974943713  15.750       6       5       A
 87  -3971.4969004742   8.750       6       5       A
 88  -3971.4964615276   3.750       6       5       A
 89  -3971.4961941421   0.750       6       5       A
 90  -3971.4959819436  15.750       6       5       A
 91  -3971.4956077595   8.750       6       5       A
 92  -3971.4953734250   3.750       6       5       A
 93  -3971.4952426121   0.750       6       5       A
 94  -3971.4945858641  15.750       6       5       A
 95  -3971.4944932389  15.750       6       5       A
 96  -3971.4941195727   8.750       6       5       A
 97  -3971.4938736541   8.750       6       5       A
 98  -3971.4937684179   3.750       6       5       A
 99  -3971.4935596124  15.750       6       5       A
Remaining 11813 eigenvalues truncated; increase verbosity to print them all
Natural-orbital analysis for state(s) [0, 1, 2, 3, 4]
LASSI op_o0 memory check: 3361223.475072 MB needed of 117134.946304 MB available (128000 MB max)
Delocalized natural orbitals do not reflect LAS fragmentation
Natural occ [1.98698629 1.03486795 1.01506433 1.01251575 1.00149527 0.9977842
 0.99277797 0.98139725 0.97895618 0.95930302 0.01195775 0.00422876
 0.00407042 0.00389569 0.00347826 0.00229619 0.00228946 0.00227292
 0.00224914 0.00211321]
Natural orbital (expansion on AOs) in CAS space
               #1        #2        #3        #4        #5       
0 O 1s          -0.00011  -0.00013   0.00013   0.00035  -0.00025
0 O 2s           0.00160   0.00137  -0.00067   0.00141   0.00121
0 O 3s           0.00057   0.00046  -0.00027   0.00030   0.00045
0 O 4s           0.00477   0.00347  -0.00115  -0.00368   0.00423
0 O 2px          0.00476   0.00110   0.00001   0.00541  -0.00062
0 O 2py          0.00048  -0.00112   0.00188   0.00178  -0.00188
0 O 2pz          0.00216   0.00090  -0.00167  -0.00232   0.00132
0 O 3px          0.00569   0.00152   0.00020   0.00644  -0.00046
0 O 3py          0.00041  -0.00116   0.00187   0.00181  -0.00206
0 O 3pz          0.00284   0.00097  -0.00185  -0.00275   0.00135
0 O 4px          0.00791   0.00110  -0.00023   0.00688  -0.00169
0 O 4py          0.00002  -0.00284   0.00437   0.00353  -0.00365
0 O 4pz          0.00399   0.00191  -0.00396  -0.00200   0.00283
0 O 3dxy         0.00012   0.00003  -0.00005   0.00002  -0.00001
0 O 3dyz         0.00007   0.00003   0.00001   0.00005   0.00002
0 O 3dz^2       -0.00003  -0.00000  -0.00002  -0.00008  -0.00001
0 O 3dxz        -0.00004   0.00002   0.00001   0.00001   0.00006
0 O 3dx2-y2      0.00004   0.00001  -0.00003  -0.00007   0.00002
0 O 4dxy         0.00026  -0.00018  -0.00005  -0.00014  -0.00033
0 O 4dyz         0.00011   0.00027  -0.00003   0.00019   0.00041
0 O 4dz^2       -0.00016  -0.00019   0.00014  -0.00012  -0.00022
0 O 4dxz         0.00015   0.00005  -0.00007   0.00036   0.00020
0 O 4dx2-y2     -0.00017  -0.00003   0.00007  -0.00014  -0.00019
0 O 4f-3         0.00003   0.00003  -0.00005  -0.00001   0.00006
0 O 4f-2         0.00003  -0.00001  -0.00003  -0.00006  -0.00003
0 O 4f-1        -0.00001   0.00004  -0.00002   0.00004   0.00007
0 O 4f+0         0.00001   0.00002   0.00001   0.00005   0.00003
0 O 4f+1        -0.00001  -0.00000   0.00001  -0.00003  -0.00001
0 O 4f+2         0.00000   0.00001   0.00002   0.00009   0.00004
0 O 4f+3         0.00003  -0.00001  -0.00002  -0.00005  -0.00007
1 O 1s           0.00030   0.00011   0.00020   0.00017  -0.00007
1 O 2s           0.00692  -0.00869   0.00239   0.00022  -0.02341
1 O 3s           0.00195  -0.00253   0.00055  -0.00003  -0.00677
1 O 4s           0.01121  -0.01774   0.00123  -0.00204  -0.04049
1 O 2px         -0.00521  -0.00906   0.00765  -0.00151  -0.01456
1 O 2py         -0.00723  -0.00284   0.00870   0.00805  -0.00116
1 O 2pz         -0.00494   0.00653  -0.00555  -0.01124   0.01859
1 O 3px         -0.00589  -0.01182   0.00993  -0.00174  -0.01873
1 O 3py         -0.00811  -0.00375   0.01068   0.01005  -0.00271
1 O 3pz         -0.00600   0.00882  -0.00729  -0.01410   0.02405
1 O 4px         -0.01106  -0.01294   0.00881  -0.00116  -0.02030
1 O 4py         -0.01201  -0.00607   0.01242   0.00831  -0.00384
1 O 4pz         -0.00708   0.00950  -0.00616  -0.01695   0.02690
1 O 3dxy         0.00023  -0.00013  -0.00025  -0.00044  -0.00040
1 O 3dyz        -0.00086  -0.00001   0.00032   0.00022   0.00045
1 O 3dz^2       -0.00066   0.00008  -0.00006  -0.00059   0.00033
1 O 3dxz         0.00003  -0.00044   0.00013   0.00000  -0.00090
1 O 3dx2-y2      0.00051   0.00034  -0.00031   0.00004   0.00028
1 O 4dxy         0.00038  -0.00045  -0.00090  -0.00113  -0.00093
1 O 4dyz        -0.00243  -0.00006   0.00081   0.00057   0.00119
1 O 4dz^2       -0.00269   0.00004  -0.00009  -0.00204   0.00064
1 O 4dxz        -0.00055  -0.00099   0.00057   0.00029  -0.00193
1 O 4dx2-y2      0.00215   0.00125  -0.00121   0.00055   0.00086
1 O 4f-3         0.00024   0.00014  -0.00026   0.00001   0.00016
1 O 4f-2        -0.00012  -0.00014   0.00021   0.00015  -0.00032
1 O 4f-1         0.00007   0.00007  -0.00010  -0.00036   0.00018
1 O 4f+0         0.00040  -0.00001  -0.00008   0.00009  -0.00009
1 O 4f+1        -0.00010   0.00014   0.00001   0.00000   0.00025
1 O 4f+2         0.00014  -0.00013  -0.00008  -0.00013  -0.00025
1 O 4f+3        -0.00006   0.00010   0.00009   0.00022   0.00013
2 C 1s          -0.00026   0.00023   0.00022   0.00039   0.00062
2 C 2s          -0.00604   0.00228   0.00311   0.00469   0.00823
2 C 3s          -0.00884   0.00048   0.00307   0.00801   0.00364
2 C 2px         -0.01695  -0.00168   0.00532  -0.00284   0.00619
2 C 2py          0.00307  -0.00509  -0.00091  -0.00346  -0.01238
2 C 2pz         -0.00534  -0.00374  -0.00030  -0.00925  -0.00536
2 C 3px         -0.01326  -0.00082   0.00128  -0.00452   0.00329
2 C 3py         -0.00036  -0.00403   0.00406  -0.00062  -0.00663
2 C 3pz         -0.00497  -0.00277   0.00257  -0.00485  -0.00331
2 C 3dxy         0.00216   0.00037  -0.00054   0.00110  -0.00064
2 C 3dyz         0.00083   0.00008   0.00022   0.00142  -0.00010
2 C 3dz^2        0.00093  -0.00102   0.00098   0.00140  -0.00237
2 C 3dxz        -0.00031   0.00095  -0.00083  -0.00056   0.00204
2 C 3dx2-y2     -0.00063  -0.00195   0.00191   0.00089  -0.00329
3 H 1s           0.00137  -0.00408   0.00333   0.00345  -0.00921
3 H 2s           0.00134  -0.00437   0.00356   0.00449  -0.01125
3 H 2px         -0.00050   0.00002   0.00012   0.00003   0.00026
3 H 2py          0.00000  -0.00014  -0.00011  -0.00004  -0.00033
3 H 2pz         -0.00000  -0.00016  -0.00005  -0.00024  -0.00025
4 O 1s           0.00022   0.00008   0.00003  -0.00008  -0.00004
4 O 2s          -0.00050  -0.00826   0.00036  -0.00856  -0.02766
4 O 3s          -0.00027  -0.00238   0.00004  -0.00233  -0.00774
4 O 4s          -0.00311  -0.01295   0.00006  -0.01281  -0.04079
4 O 2px          0.00044  -0.00801  -0.00799   0.00641  -0.00349
4 O 2py          0.00059   0.00298  -0.00791   0.01708   0.02903
4 O 2pz         -0.00003  -0.00184   0.00444  -0.00684  -0.02072
4 O 3px          0.00063  -0.00980  -0.01005   0.00815  -0.00354
4 O 3py          0.00045   0.00384  -0.01045   0.02226   0.03723
4 O 3pz         -0.00010  -0.00262   0.00578  -0.00926  -0.02716
4 O 4px         -0.00086  -0.00787  -0.00903   0.00926   0.00169
4 O 4py          0.00412   0.00359  -0.00893   0.02048   0.03496
4 O 4pz         -0.00139  -0.00251   0.00480  -0.00769  -0.02733
4 O 3dxy         0.00002  -0.00046  -0.00023  -0.00009  -0.00086
4 O 3dyz        -0.00002  -0.00007   0.00006  -0.00014  -0.00049
4 O 3dz^2        0.00001  -0.00021  -0.00010  -0.00011  -0.00037
4 O 3dxz        -0.00004   0.00022   0.00007  -0.00008   0.00039
4 O 3dx2-y2     -0.00006   0.00016   0.00029  -0.00047  -0.00027
4 O 4dxy        -0.00004  -0.00084  -0.00031  -0.00068  -0.00172
4 O 4dyz         0.00002   0.00025   0.00034  -0.00026  -0.00058
4 O 4dz^2       -0.00016  -0.00050  -0.00007  -0.00018  -0.00069
4 O 4dxz         0.00005   0.00070   0.00001  -0.00004   0.00129
4 O 4dx2-y2      0.00004   0.00059   0.00120  -0.00159  -0.00089
4 O 4f-3        -0.00003   0.00020   0.00004   0.00010   0.00040
4 O 4f-2         0.00002  -0.00012  -0.00013   0.00009   0.00017
4 O 4f-1         0.00000  -0.00004   0.00002  -0.00010  -0.00029
4 O 4f+0         0.00001   0.00000   0.00003  -0.00005   0.00000
4 O 4f+1        -0.00001   0.00018   0.00008  -0.00004   0.00011
4 O 4f+2         0.00002  -0.00006   0.00008  -0.00014  -0.00038
4 O 4f+3         0.00004  -0.00012  -0.00025   0.00028   0.00025
5 O 1s          -0.00012   0.00021   0.00012  -0.00014  -0.00012
5 O 2s           0.00061   0.00100  -0.00075   0.00109   0.00217
5 O 3s           0.00023   0.00021  -0.00024   0.00034   0.00068
5 O 4s           0.00384   0.00013  -0.00147   0.00371   0.00086
5 O 2px          0.00010  -0.00014  -0.00180   0.00118   0.00213
5 O 2py         -0.00133   0.00077   0.00138  -0.00046   0.00189
5 O 2pz          0.00070   0.00131   0.00161  -0.00308  -0.00270
5 O 3px          0.00031  -0.00015  -0.00207   0.00108   0.00232
5 O 3py         -0.00168   0.00085   0.00180  -0.00115   0.00185
5 O 3pz          0.00059   0.00165   0.00187  -0.00351  -0.00290
5 O 4px          0.00047   0.00009  -0.00344   0.00251   0.00244
5 O 4py         -0.00212   0.00131   0.00142   0.00049   0.00392
5 O 4pz          0.00226   0.00240   0.00264  -0.00473  -0.00443
5 O 3dxy        -0.00000  -0.00002  -0.00005   0.00003   0.00001
5 O 3dyz         0.00002   0.00005  -0.00001   0.00001   0.00007
5 O 3dz^2       -0.00002  -0.00003  -0.00001  -0.00002   0.00001
5 O 3dxz         0.00001   0.00000   0.00001   0.00006   0.00002
5 O 3dx2-y2      0.00000   0.00004   0.00001  -0.00004   0.00002
5 O 4dxy         0.00002  -0.00005   0.00016  -0.00009  -0.00051
5 O 4dyz         0.00016   0.00026   0.00005   0.00011   0.00053
5 O 4dz^2        0.00004   0.00004   0.00008  -0.00034  -0.00031
5 O 4dxz         0.00002   0.00007   0.00006  -0.00004   0.00017
5 O 4dx2-y2      0.00029   0.00025  -0.00015   0.00027   0.00051
5 O 4f-3        -0.00002  -0.00002  -0.00000  -0.00002  -0.00008
5 O 4f-2         0.00002   0.00006   0.00001  -0.00000   0.00008
5 O 4f-1        -0.00000  -0.00002  -0.00000   0.00001  -0.00001
5 O 4f+0         0.00001   0.00001  -0.00003   0.00004   0.00004
5 O 4f+1        -0.00001  -0.00004   0.00001  -0.00003  -0.00008
5 O 4f+2         0.00001   0.00002   0.00006  -0.00003  -0.00005
5 O 4f+3         0.00002   0.00003  -0.00004   0.00004   0.00012
6 C 1s           0.00007   0.00039  -0.00017  -0.00017   0.00047
6 C 2s           0.00002   0.00575   0.00207  -0.00000   0.00901
6 C 3s          -0.00351   0.00223   0.00545  -0.00079   0.00630
6 C 2px          0.00048   0.00707   0.00190   0.00489   0.01603
6 C 2py          0.00047  -0.00727  -0.00398   0.00234  -0.01133
6 C 2pz          0.00019   0.00102  -0.00106   0.00406   0.00231
6 C 3px         -0.00107   0.00079  -0.00270   0.00430   0.00538
6 C 3py          0.00246  -0.00232  -0.00254  -0.00177  -0.00988
6 C 3pz         -0.00075   0.00050   0.00057   0.00333   0.00524
6 C 3dxy         0.00033  -0.00085  -0.00113   0.00114  -0.00029
6 C 3dyz        -0.00013   0.00065  -0.00046   0.00053   0.00259
6 C 3dz^2        0.00020  -0.00035   0.00011  -0.00068  -0.00160
6 C 3dxz         0.00016  -0.00015   0.00064  -0.00082  -0.00253
6 C 3dx2-y2     -0.00022   0.00033  -0.00165   0.00284   0.00513
7 H 1s           0.00030  -0.00229   0.00232  -0.00607  -0.01379
7 H 2s          -0.00124  -0.00110   0.00358  -0.00462  -0.00944
7 H 2px          0.00011   0.00019   0.00015   0.00001   0.00029
7 H 2py          0.00003  -0.00015  -0.00005   0.00022  -0.00009
7 H 2pz         -0.00005  -0.00001  -0.00005   0.00002  -0.00005
8 O 1s          -0.00007  -0.00039  -0.00009  -0.00012  -0.00001
8 O 2s          -0.00875  -0.00690  -0.01570   0.00279   0.02328
8 O 3s          -0.00264  -0.00179  -0.00460   0.00083   0.00677
8 O 4s          -0.02112  -0.00987  -0.02580   0.00399   0.03700
8 O 2px          0.00510   0.00754   0.00897   0.00504  -0.01025
8 O 2py          0.00902  -0.01151   0.00431   0.00057   0.01692
8 O 2pz         -0.00539   0.00717   0.00729  -0.01015  -0.01281
8 O 3px          0.00598   0.00995   0.01124   0.00590  -0.01379
8 O 3py          0.01031  -0.01494   0.00448   0.00097   0.02271
8 O 3pz         -0.00600   0.00975   0.00964  -0.01319  -0.01740
8 O 4px          0.00477   0.00926   0.01054   0.00517  -0.01422
8 O 4py          0.01315  -0.01632   0.00366  -0.00029   0.02404
8 O 4pz         -0.01105   0.00766   0.01022  -0.01466  -0.01792
8 O 3dxy         0.00032  -0.00062   0.00026  -0.00014   0.00049
8 O 3dyz         0.00043  -0.00029   0.00010   0.00000   0.00034
8 O 3dz^2       -0.00048  -0.00014  -0.00015  -0.00064   0.00005
8 O 3dxz         0.00046   0.00012   0.00070  -0.00049  -0.00073
8 O 3dx2-y2      0.00097   0.00025   0.00073   0.00030  -0.00038
8 O 4dxy         0.00040  -0.00203   0.00074  -0.00040   0.00243
8 O 4dyz         0.00192  -0.00111   0.00038   0.00010   0.00078
8 O 4dz^2       -0.00095  -0.00039  -0.00008  -0.00266  -0.00020
8 O 4dxz         0.00101   0.00019   0.00181  -0.00214  -0.00251
8 O 4dx2-y2      0.00253   0.00094   0.00195   0.00089  -0.00143
8 O 4f-3         0.00054   0.00011   0.00028   0.00019   0.00004
8 O 4f-2         0.00009   0.00021   0.00028  -0.00021  -0.00043
8 O 4f-1        -0.00029   0.00008   0.00009  -0.00036  -0.00024
8 O 4f+0        -0.00001   0.00010  -0.00003   0.00021  -0.00013
8 O 4f+1        -0.00026   0.00001  -0.00015   0.00006   0.00003
8 O 4f+2        -0.00053   0.00016  -0.00005  -0.00013  -0.00022
8 O 4f+3        -0.00015   0.00035  -0.00005   0.00008  -0.00055
9 O 1s          -0.00012   0.00021  -0.00012  -0.00014   0.00012
9 O 2s           0.00061   0.00100   0.00075   0.00109  -0.00217
9 O 3s           0.00023   0.00021   0.00024   0.00034  -0.00068
9 O 4s           0.00384   0.00013   0.00147   0.00371  -0.00086
9 O 2px         -0.00014  -0.00046   0.00212   0.00196  -0.00286
9 O 2py         -0.00109   0.00110  -0.00170  -0.00123  -0.00117
9 O 2pz         -0.00103  -0.00096   0.00062   0.00240  -0.00243
9 O 3px          0.00007  -0.00056   0.00243   0.00195  -0.00309
9 O 3py         -0.00145   0.00126  -0.00216  -0.00202  -0.00107
9 O 3pz         -0.00109  -0.00125   0.00067   0.00263  -0.00255
9 O 4px         -0.00024  -0.00052   0.00397   0.00372  -0.00370
9 O 4py         -0.00140   0.00192  -0.00196  -0.00073  -0.00265
9 O 4pz         -0.00279  -0.00188   0.00111   0.00381  -0.00449
9 O 3dxy        -0.00000  -0.00003   0.00004   0.00004   0.00001
9 O 3dyz        -0.00001  -0.00003  -0.00002  -0.00000   0.00008
9 O 3dz^2       -0.00001  -0.00005  -0.00001   0.00000   0.00001
9 O 3dxz        -0.00002  -0.00004   0.00002  -0.00004   0.00002
9 O 3dx2-y2     -0.00001   0.00003  -0.00001  -0.00006   0.00001
9 O 4dxy        -0.00002  -0.00010  -0.00014  -0.00007   0.00052
9 O 4dyz        -0.00024  -0.00029   0.00009   0.00001   0.00032
9 O 4dz^2       -0.00003  -0.00005  -0.00005  -0.00032   0.00033
9 O 4dxz        -0.00008  -0.00015  -0.00006  -0.00022   0.00059
9 O 4dx2-y2      0.00022   0.00014   0.00017   0.00023  -0.00028
9 O 4f-3        -0.00002  -0.00002  -0.00001  -0.00002   0.00010
9 O 4f-2        -0.00000  -0.00003   0.00000   0.00002   0.00004
9 O 4f-1         0.00002   0.00001  -0.00001   0.00002  -0.00003
9 O 4f+0         0.00000   0.00002  -0.00001  -0.00000  -0.00004
9 O 4f+1        -0.00001  -0.00004  -0.00004  -0.00004   0.00011
9 O 4f+2        -0.00003  -0.00005   0.00003  -0.00001   0.00006
9 O 4f+3         0.00001   0.00000   0.00005   0.00005  -0.00010
10 O 1s          0.00022   0.00008  -0.00003  -0.00008   0.00004
10 O 2s         -0.00050  -0.00826  -0.00036  -0.00856   0.02766
10 O 3s         -0.00027  -0.00238  -0.00004  -0.00233   0.00774
10 O 4s         -0.00311  -0.01295  -0.00006  -0.01281   0.04079
10 O 2px         0.00045  -0.00708   0.00920   0.00869  -0.00341
10 O 2py         0.00057   0.00206   0.00670   0.01480  -0.02212
10 O 2pz         0.00007   0.00469   0.00407   0.00922  -0.02798
10 O 3px         0.00065  -0.00856   0.01164   0.01122  -0.00544
10 O 3py         0.00043   0.00259   0.00886   0.01919  -0.02825
10 O 3pz         0.00005   0.00614   0.00545   0.01239  -0.03618
10 O 4px        -0.00029  -0.00674   0.01033   0.01178  -0.01043
10 O 4py         0.00355   0.00246   0.00762   0.01795  -0.02623
10 O 4pz         0.00264   0.00544   0.00440   0.01015  -0.03429
10 O 3dxy        0.00001  -0.00032   0.00019  -0.00006   0.00053
10 O 3dyz        0.00003   0.00020   0.00003   0.00032  -0.00080
10 O 3dz^2      -0.00000   0.00002   0.00005  -0.00005  -0.00021
10 O 3dxz        0.00006  -0.00042   0.00024   0.00014   0.00056
10 O 3dx2-y2    -0.00004   0.00011  -0.00023  -0.00037   0.00022
10 O 4dxy       -0.00001  -0.00060   0.00036  -0.00055   0.00104
10 O 4dyz        0.00005  -0.00001   0.00050   0.00089  -0.00131
10 O 4dz^2      -0.00010  -0.00008   0.00016   0.00004  -0.00050
10 O 4dxz       -0.00013  -0.00119   0.00048   0.00024   0.00147
10 O 4dx2-y2     0.00002   0.00029  -0.00101  -0.00138   0.00102
10 O 4f-3       -0.00002   0.00017  -0.00008   0.00002  -0.00017
10 O 4f-2       -0.00001  -0.00001  -0.00015  -0.00021   0.00045
10 O 4f-1        0.00003  -0.00007   0.00000  -0.00009   0.00021
10 O 4f+0        0.00001  -0.00016   0.00009   0.00003   0.00015
10 O 4f+1       -0.00000   0.00009  -0.00010  -0.00012   0.00025
10 O 4f+2       -0.00004   0.00019  -0.00007  -0.00001  -0.00024
10 O 4f+3        0.00003  -0.00005   0.00020   0.00025  -0.00025
11 C 1s          0.00007   0.00039   0.00017  -0.00017  -0.00047
11 C 2s          0.00002   0.00575  -0.00207  -0.00000  -0.00901
11 C 3s         -0.00351   0.00223  -0.00545  -0.00079  -0.00630
11 C 2px         0.00043   0.00624  -0.00196   0.00369  -0.01434
11 C 2py         0.00053  -0.00644   0.00404   0.00355   0.00964
11 C 2pz        -0.00018  -0.00485   0.00063  -0.00444   0.00959
11 C 3px        -0.00072   0.00053   0.00285   0.00316  -0.00336
11 C 3py         0.00212  -0.00206   0.00239  -0.00063   0.00786
11 C 3pz         0.00165  -0.00131   0.00049  -0.00472   0.00900
11 C 3dxy        0.00036  -0.00094   0.00078   0.00081   0.00135
11 C 3dyz       -0.00003  -0.00024  -0.00099  -0.00110   0.00246
11 C 3dz^2       0.00024  -0.00051  -0.00071  -0.00126   0.00344
11 C 3dxz        0.00011  -0.00040   0.00026  -0.00017   0.00040
11 C 3dx2-y2    -0.00021   0.00017   0.00157   0.00270  -0.00472
12 H 1s          0.00030  -0.00229  -0.00232  -0.00607   0.01379
12 H 2s         -0.00124  -0.00110  -0.00358  -0.00462   0.00944
12 H 2px         0.00012   0.00018  -0.00015   0.00001  -0.00029
12 H 2py         0.00002  -0.00014   0.00006   0.00022   0.00009
12 H 2pz         0.00002  -0.00009   0.00001   0.00003   0.00006
13 O 1s          0.00030   0.00011  -0.00020   0.00017   0.00007
13 O 2s          0.00692  -0.00869  -0.00239   0.00022   0.02341
13 O 3s          0.00194  -0.00253  -0.00055  -0.00003   0.00677
13 O 4s          0.01121  -0.01774  -0.00123  -0.00204   0.04050
13 O 2px        -0.00394  -0.01060  -0.00921   0.00192   0.01911
13 O 2py        -0.00850  -0.00130  -0.00715   0.00462  -0.00339
13 O 2pz         0.00401  -0.00433  -0.00541   0.01298   0.01350
13 O 3px        -0.00434  -0.01391  -0.01194   0.00256   0.02467
13 O 3py        -0.00967  -0.00166  -0.00867   0.00575  -0.00323
13 O 3pz         0.00493  -0.00594  -0.00693   0.01623   0.01782
13 O 4px        -0.00917  -0.01526  -0.01063   0.00382   0.02700
13 O 4py        -0.01390  -0.00375  -0.01060   0.00333  -0.00286
13 O 4pz         0.00627  -0.00689  -0.00667   0.01822   0.02034
13 O 3dxy        0.00052  -0.00024   0.00027  -0.00039   0.00075
13 O 3dyz        0.00078  -0.00004   0.00010   0.00018   0.00038
13 O 3dz^2      -0.00016  -0.00011   0.00010  -0.00050   0.00028
13 O 3dxz       -0.00029   0.00027   0.00015  -0.00041  -0.00065
13 O 3dx2-y2     0.00070   0.00044   0.00041  -0.00002  -0.00038
13 O 4dxy        0.00117  -0.00066   0.00088  -0.00085   0.00173
13 O 4dyz        0.00252  -0.00009   0.00012   0.00053   0.00103
13 O 4dz^2      -0.00131  -0.00032   0.00006  -0.00156   0.00074
13 O 4dxz       -0.00095   0.00037   0.00049  -0.00162  -0.00125
13 O 4dx2-y2     0.00279   0.00144   0.00149   0.00028  -0.00099
13 O 4f-3        0.00032   0.00011   0.00032  -0.00007  -0.00012
13 O 4f-2        0.00020   0.00000   0.00016  -0.00027  -0.00009
13 O 4f-1        0.00024  -0.00002   0.00005  -0.00014   0.00008
13 O 4f+0       -0.00016  -0.00006  -0.00003  -0.00020   0.00007
13 O 4f+1       -0.00020   0.00008   0.00004  -0.00022  -0.00022
13 O 4f+2       -0.00002   0.00018   0.00008  -0.00012  -0.00035
13 O 4f+3       -0.00003   0.00018  -0.00002   0.00014  -0.00031
14 O 1s         -0.00011  -0.00013  -0.00013   0.00035   0.00025
14 O 2s          0.00160   0.00137   0.00067   0.00141  -0.00121
14 O 3s          0.00057   0.00046   0.00027   0.00030  -0.00045
14 O 4s          0.00477   0.00347   0.00115  -0.00368  -0.00423
14 O 2px         0.00401   0.00077  -0.00054   0.00590   0.00103
14 O 2py         0.00124  -0.00079  -0.00135   0.00129   0.00148
14 O 2pz        -0.00316  -0.00143  -0.00205   0.00115   0.00156
14 O 3px         0.00471   0.00115  -0.00076   0.00701   0.00089
14 O 3py         0.00139  -0.00079  -0.00130   0.00124   0.00163
14 O 3pz        -0.00406  -0.00163  -0.00216   0.00128   0.00168
14 O 4px         0.00652   0.00043  -0.00102   0.00729   0.00254
14 O 4py         0.00142  -0.00216  -0.00311   0.00312   0.00281
14 O 4pz        -0.00583  -0.00284  -0.00490   0.00094   0.00314
14 O 3dxy        0.00009   0.00003   0.00004   0.00002  -0.00000
14 O 3dyz       -0.00008  -0.00004  -0.00002   0.00000   0.00003
14 O 3dz^2      -0.00008  -0.00001   0.00001  -0.00008  -0.00001
14 O 3dxz        0.00003  -0.00002   0.00002  -0.00002   0.00006
14 O 3dx2-y2     0.00003  -0.00000   0.00004  -0.00008   0.00000
14 O 4dxy        0.00027  -0.00020   0.00008  -0.00007   0.00033
14 O 4dyz       -0.00006  -0.00009   0.00004  -0.00007   0.00013
14 O 4dz^2      -0.00014  -0.00022  -0.00010  -0.00000   0.00022
14 O 4dxz       -0.00009  -0.00019  -0.00009  -0.00036   0.00033
14 O 4dx2-y2    -0.00023  -0.00011  -0.00010  -0.00028   0.00034
14 O 4f-3        0.00002   0.00003   0.00002   0.00004  -0.00008
14 O 4f-2       -0.00004   0.00002  -0.00003   0.00010  -0.00006
14 O 4f-1        0.00001   0.00003   0.00001   0.00006  -0.00005
14 O 4f+0        0.00001   0.00001   0.00004  -0.00001  -0.00001
14 O 4f+1       -0.00003  -0.00000  -0.00002   0.00002  -0.00001
14 O 4f+2       -0.00002   0.00002   0.00003  -0.00005  -0.00004
14 O 4f+3        0.00002  -0.00001   0.00002  -0.00004   0.00005
15 C 1s         -0.00026   0.00023  -0.00022   0.00039  -0.00062
15 C 2s         -0.00604   0.00228  -0.00311   0.00469  -0.00823
15 C 3s         -0.00884   0.00048  -0.00307   0.00801  -0.00364
15 C 2px        -0.01472  -0.00079  -0.00516  -0.00034  -0.00693
15 C 2py         0.00084  -0.00598   0.00075  -0.00596   0.01312
15 C 2pz         0.01039   0.00252   0.00142   0.00837   0.00012
15 C 3px        -0.01141  -0.00019  -0.00069  -0.00304  -0.00381
15 C 3py        -0.00222  -0.00466  -0.00465  -0.00209   0.00715
15 C 3pz         0.00810   0.00168   0.00161   0.00554  -0.00035
15 C 3dxy        0.00159   0.00069   0.00089   0.00034  -0.00026
15 C 3dyz       -0.00142   0.00071   0.00090  -0.00223  -0.00195
15 C 3dz^2      -0.00006  -0.00046  -0.00038   0.00009   0.00083
15 C 3dxz        0.00128  -0.00060  -0.00042   0.00094   0.00194
15 C 3dx2-y2    -0.00072  -0.00208  -0.00193   0.00059   0.00356
16 H 1s          0.00137  -0.00408  -0.00333   0.00345   0.00921
16 H 2s          0.00134  -0.00437  -0.00356   0.00449   0.01125
16 H 2px        -0.00048   0.00005  -0.00013   0.00009  -0.00031
16 H 2py        -0.00002  -0.00018   0.00011  -0.00010   0.00037
16 H 2pz         0.00014   0.00010   0.00001   0.00020  -0.00007
17 Fe 1s         0.00005  -0.00004  -0.00000   0.00072  -0.00000
17 Fe 2s         0.00020  -0.00011  -0.00000   0.00213  -0.00000
17 Fe 3s        -0.03036   0.00013  -0.00000   0.00987  -0.00000
17 Fe 4s        -0.02062  -0.03661   0.00000   0.03965   0.00000
17 Fe 5s        -0.01000  -0.00560   0.00000  -0.00393   0.00000
17 Fe 6s         0.00437   0.00093   0.00000   0.00429  -0.00000
17 Fe 7s        -0.03707  -0.01007   0.00000  -0.02416   0.00000
17 Fe 2px       -0.00096  -0.00021   0.00002   0.00001  -0.00000
17 Fe 2py        0.00022  -0.00052  -0.00002   0.00048   0.00000
17 Fe 2pz        0.00017  -0.00004   0.00012   0.00007  -0.00002
17 Fe 3px       -0.02684  -0.00580   0.00030   0.00057  -0.00009
17 Fe 3py       -0.00130  -0.01532  -0.00030   0.00810   0.00009
17 Fe 3pz        0.00362  -0.00135   0.00209   0.00107  -0.00062
17 Fe 4px       -0.09667  -0.02791   0.00049   0.00503   0.00048
17 Fe 4py        0.06826  -0.00261  -0.00048   0.07483  -0.00048
17 Fe 4pz        0.02339   0.00359   0.00342   0.00990   0.00338
17 Fe 5px        0.06152   0.03305  -0.00061  -0.00718  -0.00001
17 Fe 5py       -0.06248   0.04775   0.00061  -0.07402   0.00001
17 Fe 5pz       -0.01758   0.00209  -0.00432  -0.00948  -0.00006
17 Fe 6px       -0.00014   0.00016   0.00005  -0.00066   0.00004
17 Fe 6py        0.00248   0.00327  -0.00005   0.00109  -0.00004
17 Fe 6pz        0.00037   0.00044   0.00034   0.00025   0.00025
17 Fe 7px       -0.03372  -0.00191  -0.00117   0.00050  -0.00068
17 Fe 7py       -0.00829  -0.01066   0.00117  -0.00869   0.00068
17 Fe 7pz        0.00361  -0.00124  -0.00825  -0.00130  -0.00478
17 Fe 3dxy      -0.68856  -0.17779  -0.09380   0.42829   0.08765
17 Fe 3dyz       0.07216  -0.15132  -0.64834  -0.13169  -0.01742
17 Fe 3dz^2      0.42612   0.42927  -0.16246   0.39929   0.15181
17 Fe 3dxz       0.08678   0.01586  -0.01356   0.19926  -0.61063
17 Fe 3dx2-y2   -0.56037   0.47761  -0.09387  -0.23823  -0.08907
17 Fe 4dxy      -0.01023   0.00612   0.00463  -0.01428  -0.00566
17 Fe 4dyz       0.00067   0.00641   0.02553   0.00484  -0.00594
17 Fe 4dz^2      0.00778  -0.01870   0.00802  -0.01450  -0.00980
17 Fe 4dxz       0.00163  -0.00135  -0.00582  -0.00680   0.03237
17 Fe 4dx2-y2   -0.00811  -0.01785   0.00279   0.00690   0.00375
17 Fe 5dxy      -0.00658   0.00058   0.00086  -0.00213  -0.00103
17 Fe 5dyz       0.00052   0.00121   0.00456   0.00086  -0.00151
17 Fe 5dz^2      0.00469  -0.00340   0.00149  -0.00257  -0.00179
17 Fe 5dxz       0.00097  -0.00036  -0.00125  -0.00108   0.00549
17 Fe 5dx2-y2   -0.00527  -0.00303   0.00047   0.00077   0.00056
17 Fe 6dxy      -0.05450  -0.00808  -0.00093   0.01477   0.00009
17 Fe 6dyz       0.00719  -0.00486  -0.01663  -0.00197  -0.00630
17 Fe 6dz^2      0.02578   0.01568  -0.00161   0.00721   0.00015
17 Fe 6dxz       0.00428   0.00078  -0.01033   0.00609  -0.00690
17 Fe 6dx2-y2   -0.04044   0.01438  -0.00382  -0.01453  -0.00187
17 Fe 4f-3       0.00024  -0.00003   0.00002   0.00010   0.00003
17 Fe 4f-2       0.00002  -0.00002  -0.00002  -0.00006   0.00020
17 Fe 4f-1      -0.00010  -0.00025   0.00006  -0.00012  -0.00005
17 Fe 4f+0       0.00001  -0.00006  -0.00006  -0.00005  -0.00000
17 Fe 4f+1      -0.00012  -0.00008   0.00001  -0.00001   0.00005
17 Fe 4f+2       0.00006  -0.00006  -0.00015  -0.00002   0.00001
17 Fe 4f+3      -0.00035  -0.00009  -0.00003   0.00008   0.00004
17 Fe 5f-3       0.00068  -0.00230   0.00037   0.00115   0.00015
17 Fe 5f-2       0.00037   0.00028   0.00066  -0.00032   0.00007
17 Fe 5f-1      -0.00024  -0.00202   0.00056  -0.00007   0.00005
17 Fe 5f+0       0.00003  -0.00051  -0.00102  -0.00011   0.00026
17 Fe 5f+1      -0.00028  -0.00061   0.00010   0.00018   0.00029
17 Fe 5f+2       0.00048  -0.00081  -0.00141   0.00018  -0.00074
17 Fe 5f+3      -0.00267  -0.00124  -0.00015   0.00028  -0.00012
17 Fe 5g-4       0.00136  -0.00007   0.00019   0.00013   0.00008
17 Fe 5g-3      -0.00028   0.00010   0.00084  -0.00003   0.00107
17 Fe 5g-2      -0.00079  -0.00062  -0.00027   0.00027  -0.00012
17 Fe 5g-1       0.00013  -0.00019  -0.00070  -0.00009  -0.00054
17 Fe 5g+0       0.00072   0.00061  -0.00009   0.00039   0.00048
17 Fe 5g+1       0.00031   0.00004  -0.00059   0.00051  -0.00151
17 Fe 5g+2      -0.00072   0.00024  -0.00014  -0.00063  -0.00054
17 Fe 5g+3      -0.00014   0.00021  -0.00011  -0.00035   0.00057
17 Fe 5g+4      -0.00004  -0.00149   0.00016   0.00133   0.00034
18 O 1s         -0.00007  -0.00039   0.00009  -0.00012   0.00001
18 O 2s         -0.00875  -0.00689   0.01570   0.00279  -0.02328
18 O 3s         -0.00264  -0.00179   0.00460   0.00083  -0.00677
18 O 4s         -0.02112  -0.00987   0.02580   0.00399  -0.03700
18 O 2px         0.00672   0.00485  -0.00680   0.00764   0.00571
18 O 2py         0.00740  -0.00882  -0.00648  -0.00203  -0.01237
18 O 2pz         0.00604  -0.01181   0.00800   0.00815  -0.01923
18 O 3px         0.00779   0.00633  -0.00835   0.00930   0.00764
18 O 3py         0.00851  -0.01132  -0.00737  -0.00243  -0.01655
18 O 3pz         0.00672  -0.01578   0.01074   0.01083  -0.02601
18 O 4px         0.00811   0.00618  -0.00749   0.00896   0.00785
18 O 4py         0.00982  -0.01324  -0.00671  -0.00407  -0.01768
18 O 4pz         0.01248  -0.01404   0.01131   0.01203  -0.02696
18 O 3dxy        0.00036  -0.00045  -0.00041  -0.00017  -0.00018
18 O 3dyz       -0.00053   0.00037   0.00036   0.00028   0.00024
18 O 3dz^2      -0.00040   0.00015  -0.00012  -0.00069   0.00049
18 O 3dxz       -0.00082  -0.00035   0.00078   0.00001  -0.00081
18 O 3dx2-y2     0.00065   0.00028  -0.00046   0.00041   0.00024
18 O 4dxy        0.00027  -0.00150  -0.00106  -0.00059  -0.00145
18 O 4dyz       -0.00205   0.00131   0.00119   0.00117   0.00049
18 O 4dz^2      -0.00118   0.00052  -0.00046  -0.00299   0.00190
18 O 4dxz       -0.00203  -0.00097   0.00189   0.00022  -0.00287
18 O 4dx2-y2     0.00154   0.00112  -0.00120   0.00138   0.00085
18 O 4f-3        0.00032   0.00008  -0.00017   0.00019  -0.00010
18 O 4f-2       -0.00020  -0.00024   0.00020  -0.00002  -0.00034
18 O 4f-1       -0.00043   0.00029  -0.00007  -0.00020   0.00052
18 O 4f+0        0.00003   0.00005  -0.00023  -0.00040   0.00020
18 O 4f+1       -0.00053  -0.00005   0.00021  -0.00016  -0.00009
18 O 4f+2        0.00036  -0.00015  -0.00012   0.00000  -0.00025
18 O 4f+3       -0.00004   0.00021   0.00010   0.00014   0.00033
19 Fe 1s         0.00009   0.00006   0.00000  -0.00091   0.00000
19 Fe 2s         0.00027   0.00016   0.00000  -0.00269   0.00000
19 Fe 3s         0.00163  -0.00055   0.00000  -0.01343   0.00000
19 Fe 4s         0.01786   0.00872   0.00000  -0.04738  -0.00000
19 Fe 5s         0.00226   0.00308  -0.00000   0.00014  -0.00000
19 Fe 6s         0.00105   0.00123   0.00000  -0.00202   0.00000
19 Fe 7s         0.03508   0.00050  -0.00000   0.01246   0.00000
19 Fe 2px        0.00002   0.00034  -0.00002   0.00134   0.00001
19 Fe 2py        0.00008   0.00006   0.00002   0.00026  -0.00001
19 Fe 2pz        0.00001  -0.00004  -0.00012  -0.00015   0.00010
19 Fe 3px       -0.00013   0.01043  -0.00003   0.03277   0.00052
19 Fe 3py       -0.00001   0.00030   0.00003   0.00658  -0.00052
19 Fe 3pz        0.00002  -0.00144  -0.00018  -0.00371   0.00368
19 Fe 4px       -0.03640   0.02309  -0.00082   0.12186   0.00052
19 Fe 4py        0.02623  -0.01075   0.00082   0.04061  -0.00052
19 Fe 4pz        0.00888  -0.00480  -0.00581  -0.01152   0.00366
19 Fe 5px        0.02914  -0.03706   0.00025  -0.15002  -0.00184
19 Fe 5py       -0.01270   0.00006  -0.00025  -0.04053   0.00184
19 Fe 5pz       -0.00593   0.00526   0.00175   0.01553  -0.01298
19 Fe 6px       -0.00165  -0.00249  -0.00020  -0.00538  -0.00015
19 Fe 6py       -0.00055   0.00138   0.00020  -0.00124   0.00015
19 Fe 6pz        0.00016   0.00055  -0.00139   0.00059  -0.00104
19 Fe 7px       -0.01141   0.00244   0.00085   0.00165   0.00054
19 Fe 7py       -0.01560  -0.00567  -0.00085  -0.00040  -0.00054
19 Fe 7pz       -0.00059  -0.00115   0.00599  -0.00029   0.00382
19 Fe 3dxy      -0.00255   0.51938   0.09215  -0.40583  -0.10129
19 Fe 3dyz      -0.00338  -0.04934  -0.04324  -0.01489  -0.69487
19 Fe 3dz^2     -0.00831   0.12363   0.15959   0.46042  -0.17542
19 Fe 3dxz      -0.00839   0.16743  -0.66685   0.10083  -0.00936
19 Fe 3dx2-y2    0.04148  -0.41636  -0.10070  -0.30297  -0.09987
19 Fe 4dxy      -0.00277  -0.05330  -0.01121   0.04695   0.01486
19 Fe 4dyz      -0.00020   0.00523  -0.00084   0.00136   0.09536
19 Fe 4dz^2      0.00247  -0.01547  -0.01941  -0.05447   0.02574
19 Fe 4dxz       0.00025  -0.01844   0.07502  -0.01265  -0.00521
19 Fe 4dx2-y2   -0.00017   0.04657   0.01052   0.03980   0.01278
19 Fe 5dxy      -0.00093  -0.01091  -0.00221   0.00911   0.00296
19 Fe 5dyz      -0.00009   0.00107  -0.00011   0.00033   0.01898
19 Fe 5dz^2      0.00096  -0.00297  -0.00383  -0.01060   0.00513
19 Fe 5dxz       0.00012  -0.00368   0.01487  -0.00240  -0.00107
19 Fe 5dx2-y2   -0.00010   0.00922   0.00209   0.00730   0.00254
19 Fe 6dxy      -0.00200   0.00700   0.00124  -0.00617   0.00204
19 Fe 6dyz      -0.00064  -0.00109   0.00113  -0.00098   0.00927
19 Fe 6dz^2      0.00214   0.00315   0.00214   0.01009   0.00354
19 Fe 6dxz      -0.00014   0.00259  -0.00724   0.00237  -0.00456
19 Fe 6dx2-y2    0.00275  -0.00528  -0.00087  -0.00491   0.00067
19 Fe 4f-3      -0.00004   0.00016   0.00004  -0.00031  -0.00010
19 Fe 4f-2      -0.00000  -0.00001  -0.00012   0.00002  -0.00042
19 Fe 4f-1      -0.00001  -0.00009   0.00003   0.00013   0.00004
19 Fe 4f+0      -0.00003  -0.00008   0.00021  -0.00010   0.00009
19 Fe 4f+1       0.00006   0.00013   0.00012   0.00040  -0.00010
19 Fe 4f+2       0.00001   0.00011  -0.00032   0.00010   0.00012
19 Fe 4f+3      -0.00006  -0.00038  -0.00008  -0.00016  -0.00005
19 Fe 5f-3      -0.00021   0.00142   0.00018  -0.00397  -0.00022
19 Fe 5f-2       0.00016  -0.00005  -0.00224   0.00062  -0.00123
19 Fe 5f-1      -0.00068  -0.00046   0.00035   0.00166   0.00009
19 Fe 5f+0      -0.00022  -0.00075   0.00246  -0.00091   0.00057
19 Fe 5f+1      -0.00006   0.00153   0.00111   0.00419  -0.00010
19 Fe 5f+2       0.00007   0.00122  -0.00313   0.00119   0.00000
19 Fe 5f+3      -0.00157  -0.00393  -0.00095  -0.00297  -0.00022
19 Fe 5g-4       0.00010  -0.00011  -0.00002  -0.00000  -0.00013
19 Fe 5g-3      -0.00002   0.00001  -0.00014  -0.00001  -0.00021
19 Fe 5g-2       0.00001  -0.00007   0.00006   0.00019  -0.00002
19 Fe 5g-1       0.00002  -0.00003   0.00001  -0.00014   0.00017
19 Fe 5g+0      -0.00001   0.00007   0.00000   0.00010   0.00006
19 Fe 5g+1       0.00002  -0.00000   0.00002   0.00011   0.00005
19 Fe 5g+2      -0.00006   0.00006  -0.00001   0.00004  -0.00012
19 Fe 5g+3      -0.00001   0.00000  -0.00007   0.00001   0.00042
19 Fe 5g+4       0.00008  -0.00012  -0.00004   0.00028   0.00004
20 O 1s         -0.00008  -0.00015   0.00002  -0.00001  -0.00033
20 O 2s          0.00085   0.00633  -0.01597  -0.01166   0.02570
20 O 3s          0.00023   0.00191  -0.00456  -0.00318   0.00729
20 O 4s          0.00097   0.01171  -0.02434  -0.01876   0.04145
20 O 2px        -0.00331   0.01090  -0.00594   0.00912  -0.01732
20 O 2py         0.00071  -0.00088  -0.00877  -0.00653   0.01133
20 O 2pz         0.00477  -0.00116  -0.01147  -0.01557   0.03176
20 O 3px        -0.00430   0.01362  -0.00653   0.01237  -0.02282
20 O 3py         0.00130  -0.00113  -0.01056  -0.00873   0.01476
20 O 3pz         0.00624  -0.00105  -0.01501  -0.02057   0.04200
20 O 4px        -0.00377   0.01247  -0.00675   0.01189  -0.02600
20 O 4py         0.00258  -0.00321  -0.01155  -0.00401   0.00777
20 O 4pz         0.00927  -0.00284  -0.01678  -0.01871   0.03716
20 O 3dxy        0.00016  -0.00046   0.00035  -0.00014  -0.00003
20 O 3dyz        0.00000  -0.00024   0.00065   0.00039  -0.00083
20 O 3dz^2      -0.00023  -0.00005   0.00004  -0.00002  -0.00032
20 O 3dxz        0.00006  -0.00045   0.00031  -0.00015  -0.00001
20 O 3dx2-y2    -0.00007  -0.00002  -0.00039  -0.00040   0.00037
20 O 4dxy       -0.00012  -0.00093   0.00089  -0.00093   0.00112
20 O 4dyz       -0.00033  -0.00043   0.00121   0.00102  -0.00230
20 O 4dz^2      -0.00006  -0.00016  -0.00001   0.00001  -0.00110
20 O 4dxz       -0.00006  -0.00119   0.00096  -0.00019  -0.00061
20 O 4dx2-y2     0.00016  -0.00057  -0.00073  -0.00128   0.00115
20 O 4f-3       -0.00000   0.00021  -0.00006   0.00023  -0.00033
20 O 4f-2       -0.00001   0.00006  -0.00024  -0.00020   0.00041
20 O 4f-1        0.00018  -0.00010   0.00014   0.00015  -0.00003
20 O 4f+0        0.00001  -0.00016   0.00023   0.00007  -0.00026
20 O 4f+1        0.00011  -0.00015  -0.00005  -0.00015   0.00048
20 O 4f+2       -0.00013   0.00019  -0.00001   0.00009  -0.00028
20 O 4f+3        0.00005  -0.00006   0.00019   0.00010  -0.00001
21 O 1s         -0.00008  -0.00015  -0.00002  -0.00001   0.00033
21 O 2s          0.00085   0.00633   0.01597  -0.01166  -0.02570
21 O 3s          0.00023   0.00191   0.00456  -0.00318  -0.00729
[...]
00uu0uuu0u :  7.22e-01   00u0uuuu0u : -5.85e-01   00u0uu0uuu : -6.21e-01   
000uu0uuuu : -3.75e-01   000uuuuuu0 : -5.15e-01   00uu00uuuu : -5.03e-01   
0u0u0uuu0u : -3.67e-01   000uuu0uuu :  3.44e-01   0uu00uuuu0 : -4.90e-01   
00u0uuuuu0 : -2.39e-01   0u00uuuu0u : -3.15e-01   00uu0uuu0u :  1.79e-01   
00uu00uuuu :  2.01e-01   00u0u0uuuu : -2.49e-01   0u00uuuuu0 : -1.52e-01   
000uuuuu0u : -1.92e-01   00uu0uuuu0 :  2.10e-01   0u00uu0uuu : -1.44e-01   
0u0u00uuuu : -1.33e-01   0u0u0uuuu0 : -1.39e-01   0u0u0uuu0u : -1.17e-01   
00uu0uu0uu :  1.19e-01   0uu00uuu0u : -1.17e-01   000uu0uuuu : -9.87e-02   
00u0uu0uuu :  1.02e-01   00u0uuu0uu :  1.01e-01   0u0u00uuuu :  7.27e-02   
0uu00uuuu0 :  9.57e-02   u000uuuuu0 : -6.75e-02   u0u00uuu0u : -6.47e-02   
State 12/19              State 13/19              State 14/19              
00u0uuu0uu : -6.02e-01   00uu0uu0uu :  5.90e-01   000uuuu0uu : -5.99e-01   
000uuu0uuu :  5.36e-01   000uu0uuuu :  5.53e-01   00u0uu0uuu : -4.40e-01   
00uu0u0uuu :  3.65e-01   00uu00uuuu :  3.80e-01   00uu00uuuu :  4.12e-01   
00u0u0uuuu : -2.90e-01   00u0uu0uuu : -2.64e-01   00uu0uu0uu : -3.26e-01   
00u0uuuu0u :  2.44e-01   000uuuuu0u : -2.14e-01   000uu0uuuu : -1.97e-01   
0u0u0uuuu0 :  1.36e-01   0u00uuuuu0 : -1.38e-01   0u0u00uuuu : -1.91e-01   
0u00uuu0uu : -1.05e-01   0u0u0uu0uu : -1.17e-01   0u00uu0uuu : -1.75e-01   
000uuuuuu0 :  7.56e-02   0u00uu0uuu : -1.03e-01   0uu00uuuu0 :  1.72e-01   
u000uuuuu0 :  7.32e-02   00uu0uuu0u :  7.90e-02   00uu0uuu0u : -9.88e-02   
u0u00u0uuu :  7.18e-02   u0u000uuuu :  7.33e-02   0uu00u0uuu :  6.66e-02   
State 15/19              State 16/19              State 17/19              
00u0u0uuuu :  6.06e-01   0uu00uuu0u : -5.87e-01   0uu00uuuu0 :  7.52e-01   
00uu0u0uuu : -5.36e-01   00uu0u0uuu : -3.71e-01   00u0uu0uuu : -3.63e-01   
000uuu0uuu :  3.54e-01   000uuuuuu0 :  3.10e-01   000uuuu0uu :  3.46e-01   
00u0uuu0uu : -3.18e-01   00u0u0uuuu : -2.76e-01   0u00uu0uuu : -2.47e-01   
0uu00uu0uu : -1.97e-01   0u00uuuu0u : -2.75e-01   00uu00uuuu : -2.16e-01   
0u00uuu0uu : -1.30e-01   00u0uuuu0u :  2.49e-01   0u0u00uuuu :  1.77e-01   
0u0u0u0uuu :  1.16e-01   0u00u0uuuu : -2.19e-01   0uu00u0uuu :  1.18e-01   
00u0uuuu0u : -1.16e-01   0u0u0u0uuu :  2.07e-01   0u0u0uu0uu :  7.11e-02   
0u00uuuu0u : -7.78e-02   00u0uuu0uu :  2.00e-01   0u00uuuuu0 :  6.21e-02   
0uu00uuu0u :  6.51e-02   000uuu0uuu :  1.67e-01   00u0uuuuu0 : -5.69e-02   
State 18/19              
000uuuu0uu :  6.54e-01   
00uu00uuuu :  4.08e-01   
0u0u00uuuu : -3.75e-01   
0uu00uuuu0 : -2.58e-01   
0u0u0uu0uu :  2.15e-01   
00u0uu0uuu : -2.01e-01   
00uu0uuu0u : -1.57e-01   
00uu0uu0uu : -1.53e-01   
0u00uu0uuu : -1.24e-01   
000uu0uuuu : -1.19e-01   
Rootspace 23 with averaged weight 1.991e-07
 Frag    Nelec  2S+1   Ir     <n>  Max(weight)   Entropy
    0    3a+2b     6    A   0.167       0.9713  0.130341
    1    3a+3b     7    A   2.725       0.8836  0.131420
Wave function(s) in rootspace 23 in local primitive basis:
   Fac:  5.753e-04  4.950e-04  3.698e-04  5.016e-04  1.768e-04
   0.3: -9.415e-01 -9.400e-01  9.373e-01  9.334e-01 -9.281e-01
   0.0: -2.730e-01 -2.773e-01  2.845e-01  2.947e-01 -3.079e-01
   5.0: -1.194e-01 -1.198e-01  1.205e-01  1.215e-01 -1.228e-01
   0.2:  8.477e-02  8.703e-02 -9.087e-02 -9.628e-02  1.034e-01
   5.3:  7.680e-02  7.714e-02 -7.769e-02 -7.847e-02  7.946e-02
  0.15:  4.992e-02  4.998e-02 -5.007e-02 -5.020e-02  5.035e-02
   5.2: -4.814e-02 -4.803e-02  4.782e-02  4.753e-02 -4.713e-02
  14.0:  2.949e-02  2.959e-02 -2.977e-02 -3.002e-02  3.033e-02
  0.10: -2.801e-02 -2.804e-02  2.809e-02  2.816e-02 -2.824e-02
  13.2: -2.619e-02 -2.624e-02  2.633e-02  2.645e-02 -2.659e-02
   1.0:  2.657e-02  2.644e-02 -2.621e-02 -2.589e-02  2.547e-02
   4.3:  2.047e-02  2.049e-02 -2.052e-02 -2.056e-02  2.062e-02
  14.3: -1.917e-02 -1.924e-02  1.936e-02  1.952e-02 -1.972e-02
   4.0: -1.742e-02 -1.751e-02  1.765e-02  1.786e-02 -1.813e-02
  10.0:  1.702e-02  1.714e-02 -1.734e-02 -1.761e-02  1.797e-02
   4.2:  1.533e-02  1.540e-02 -1.551e-02 -1.567e-02  1.588e-02
  10.3: -1.506e-02 -1.516e-02  1.532e-02  1.555e-02 -1.583e-02
  18.2: -1.461e-02 -1.463e-02  1.466e-02  1.470e-02 -1.475e-02
   0.8:  1.441e-02  1.444e-02 -1.447e-02 -1.453e-02  1.459e-02
  14.2:  1.272e-02  1.267e-02 -1.258e-02 -1.246e-02  1.231e-02
   9.0:  1.191e-02  1.188e-02 -1.183e-02 -1.174e-02  1.163e-02
   2.1:  1.170e-02  1.170e-02 -1.171e-02 -1.171e-02  1.172e-02
   1.3: -1.189e-02 -1.167e-02  1.130e-02  1.078e-02 -1.011e-02
   0.6: -1.085e-02 -1.087e-02  1.090e-02  1.095e-02 -1.101e-02
   9.2: -1.026e-02 -1.023e-02  1.017e-02  1.008e-02 -9.968e-03
   7.0:  9.387e-03  9.459e-03 -9.580e-03 -9.753e-03  9.978e-03
   3.4: -9.535e-03 -9.545e-03  9.561e-03  9.582e-03 -9.607e-03
  18.0:  8.555e-03  8.545e-03 -8.528e-03 -8.500e-03  8.459e-03
   3.1: -8.299e-03 -8.286e-03  8.264e-03  8.230e-03 -8.181e-03
  18.3: -7.601e-03 -7.631e-03  7.679e-03  7.746e-03 -7.828e-03
   7.2:  7.161e-03  7.117e-03 -7.042e-03 -6.935e-03  6.794e-03
  0.12: -6.577e-03 -6.580e-03  6.585e-03  6.592e-03 -6.601e-03
   9.3: -6.455e-03 -6.452e-03  6.446e-03  6.436e-03 -6.420e-03
  16.4: -5.797e-03 -5.813e-03  5.839e-03  5.875e-03 -5.920e-03
  17.4:  4.958e-03  4.972e-03 -4.994e-03 -5.025e-03  5.065e-03
  11.1:  4.901e-03  4.895e-03 -4.885e-03 -4.871e-03  4.853e-03
   7.3: -4.307e-03 -4.327e-03  4.361e-03  4.409e-03 -4.474e-03
  13.0:  4.139e-03  4.163e-03 -4.203e-03 -4.257e-03  4.323e-03
  10.2:  4.236e-03  4.175e-03 -4.073e-03 -3.927e-03  3.736e-03
  15.1:  3.791e-03  3.780e-03 -3.760e-03 -3.732e-03  3.695e-03
   8.4: -3.258e-03 -3.269e-03  3.287e-03  3.313e-03 -3.346e-03
  5.15: -2.803e-03 -2.803e-03  2.801e-03  2.799e-03 -2.795e-03
   1.2:  2.368e-03  2.350e-03 -2.319e-03 -2.277e-03  2.220e-03
   6.1: -2.240e-03 -2.244e-03  2.250e-03  2.257e-03 -2.264e-03
  5.10:  1.810e-03  1.810e-03 -1.811e-03 -1.811e-03  1.810e-03
  13.3:  1.636e-03  1.660e-03 -1.700e-03 -1.757e-03  1.831e-03
  17.1:  1.689e-03  1.680e-03 -1.666e-03 -1.645e-03  1.617e-03
   2.4: -1.198e-03 -1.211e-03  1.233e-03  1.265e-03 -1.306e-03
  12.4:  1.164e-03  1.169e-03 -1.175e-03 -1.185e-03  1.196e-03
  12.1:  8.806e-04  8.975e-04 -9.258e-04 -9.659e-04  1.018e-03
  0.16: -9.120e-04 -9.126e-04  9.135e-04  9.151e-04 -9.167e-04
   8.1:  8.161e-04  8.253e-04 -8.409e-04 -8.633e-04  8.929e-04
 14.15:  7.580e-04  7.588e-04 -7.602e-04 -7.620e-04  7.643e-04
  15.4:  7.440e-04  7.362e-04 -7.231e-04 -7.043e-04  6.796e-04
  11.4:  6.081e-04  6.005e-04 -5.878e-04 -5.699e-04  5.474e-04
 10.15:  5.799e-04  5.801e-04 -5.803e-04 -5.805e-04  5.807e-04
  9.15: -5.536e-04 -5.541e-04  5.550e-04  5.562e-04 -5.575e-04
  7.15:  5.106e-04  5.111e-04 -5.120e-04 -5.132e-04  5.148e-04
 14.10: -5.084e-04 -5.090e-04  5.100e-04  5.112e-04 -5.126e-04
 13.15: -5.071e-04 -5.068e-04  5.063e-04  5.054e-04 -5.042e-04
   5.8: -5.006e-04 -5.012e-04  5.021e-04  5.036e-04 -5.052e-04
  9.10:  4.973e-04  4.981e-04 -4.994e-04 -5.013e-04  5.035e-04
  16.1:  4.387e-04  4.479e-04 -4.634e-04 -4.858e-04  5.157e-04
 10.10: -4.159e-04 -4.166e-04  4.176e-04  4.190e-04 -4.207e-04
 18.15: -4.126e-04 -4.126e-04  4.125e-04  4.123e-04 -4.122e-04
 13.10:  4.080e-04  4.076e-04 -4.070e-04 -4.061e-04  4.048e-04
  7.10: -3.905e-04 -3.913e-04  3.927e-04  3.944e-04 -3.966e-04
 18.10:  3.614e-04  3.614e-04 -3.614e-04 -3.614e-04  3.613e-04
   5.6:  3.406e-04  3.400e-04 -3.388e-04 -3.373e-04  3.351e-04
  5.16: -2.616e-04 -2.615e-04  2.615e-04  2.614e-04 -2.611e-04
  14.8:  1.405e-04  1.410e-04 -1.419e-04 -1.432e-04  1.449e-04
  10.8:  1.380e-04  1.382e-04 -1.384e-04 -1.387e-04  1.392e-04
   6.4: -1.407e-04 -1.387e-04  1.352e-04  1.300e-04 -1.228e-04
  1.10:  1.292e-04  1.285e-04 -1.274e-04 -1.259e-04  1.238e-04
   9.8: -1.072e-04 -1.074e-04  1.076e-04  1.080e-04 -1.084e-04
   0.4:  1.065e-04  1.067e-04 -1.070e-04 -1.075e-04  1.080e-04
   7.8:  1.055e-04  1.056e-04 -1.058e-04 -1.061e-04  1.064e-04
   4.8: -9.622e-05 -9.660e-05  9.724e-05  9.812e-05 -9.934e-05
  14.6: -9.287e-05 -9.274e-05  9.252e-05  9.221e-05 -9.184e-05
   9.6:  8.816e-05  8.809e-05 -8.797e-05 -8.779e-05  8.754e-05
  13.6:  7.708e-05  7.716e-05 -7.728e-05 -7.745e-05  7.765e-05
  10.6: -7.285e-05 -7.277e-05  7.263e-05  7.242e-05 -7.215e-05
   0.1: -7.230e-05 -7.211e-05  7.181e-05  7.132e-05 -7.094e-05
  1.16:  6.894e-05  6.934e-05 -7.000e-05 -7.095e-05  7.221e-05
 14.16:  7.005e-05  7.001e-05 -6.994e-05 -6.983e-05  6.966e-05
  5.12:  6.864e-05  6.854e-05 -6.834e-05 -6.831e-05  6.829e-05
  18.6:  6.746e-05  6.748e-05 -6.752e-05 -6.754e-05  6.759e-05
   7.6: -6.761e-05 -6.757e-05  6.751e-05  6.741e-05 -6.730e-05
   2.9:  6.505e-05  6.568e-05 -6.675e-05 -6.823e-05  7.015e-05
  18.8: -4.870e-05 -4.866e-05  4.861e-05  4.852e-05 -4.844e-05
  4.15: -2.692e-05 -2.925e-05  3.322e-05  3.874e-05 -4.610e-05
   3.9: -3.298e-05 -3.357e-05  3.457e-05  3.599e-05 -3.789e-05
 13.16: -3.219e-05 -3.232e-05  3.253e-05  3.282e-05 -3.321e-05
  13.8: -3.099e-05 -3.090e-05  3.076e-05  3.056e-05 -3.030e-05
  2.18: -2.953e-05 -2.975e-05  3.011e-05  3.062e-05 -3.126e-05
Remaining 266 ENVs in rootspace 23 have combined average weight = 9.486662e-09
Leading 10 CSFs of 19 local primitive basis functions for fragment 0 in rootspace 23:
State 0/19               State 1/19               State 2/19               
00000uuuuu :  9.82e-01   0000u0uuuu : -9.09e-01   0000uuuu0u : -8.48e-01   
0000uuuuu0 : -1.14e-01   0000uuu0uu : -3.73e-01   0000uu0uuu : -4.88e-01   
000u00uuuu : -7.48e-02   00u0u00uuu :  9.11e-02   000uu0uu0u : -8.82e-02   
00u00u0uuu : -7.11e-02   0u00u0u0uu :  8.78e-02   00u0uu0u0u : -8.78e-02   
0u000uu0uu : -6.75e-02   u000u0uu0u :  7.35e-02   0u00uuu00u : -8.72e-02   
u0000uuu0u : -5.76e-02   000u00uuuu : -4.78e-02   0u000uuu0u : -6.36e-02   
uu000uu00u : -2.25e-02   00u0uu00uu : -4.04e-02   0u000u0uuu : -6.35e-02   
0uu00u00uu : -2.17e-02   000uu0u0uu : -3.86e-02   00u000uuuu :  5.20e-02   
000uu0uuu0 :  2.10e-02   00u00uuu0u :  3.76e-02   000uu00uuu : -5.06e-02   
0u0u00u0uu : -1.97e-02   00u00u0uuu :  3.63e-02   0u00uu00uu :  4.63e-02   
State 3/19               State 4/19               State 5/19               
0000uu0uuu : -8.49e-01   0000uuu0uu :  9.02e-01   0000uuuuu0 : -9.07e-01   
0000uuuu0u :  4.89e-01   0000u0uuuu : -3.79e-01   000u00uuuu :  2.98e-01   
0u00uu00uu :  8.62e-02   000uu0u0uu :  9.11e-02   00u00u0uuu :  1.83e-01   
000uu00uuu : -8.62e-02   00u0uu00uu :  9.01e-02   0u000uu0uu :  1.12e-01   
000u0u0uuu : -7.61e-02   u000uuu00u : -7.96e-02   0000uuu0uu : -8.60e-02   
u000uu0u0u :  7.02e-02   0000uuuuu0 : -6.91e-02   0u00uuu0u0 : -7.14e-02   
0u000u0uuu : -6.36e-02   000u00uuuu :  6.05e-02   u000uuuu00 : -6.74e-02   
0u00uuu00u :  5.38e-02   0u000uu0uu :  4.36e-02   00u0uu0uu0 : -6.66e-02   
000uu0uu0u :  4.98e-02   0u00u0u0uu :  3.73e-02   00000uuuuu : -5.71e-02   
00u0uu0u0u :  4.31e-02   00u0u00uuu :  3.45e-02   000uu0uuu0 : -5.51e-02   
State 6/19               State 7/19               State 8/19               
000u0uuu0u :  8.02e-01   000u0uu0uu :  6.25e-01   00u00uu0uu :  6.87e-01   
0u000uuu0u : -4.93e-01   000u0uuuu0 : -4.40e-01   00u000uuuu :  6.09e-01   
00u00uu0uu : -1.55e-01   000u00uuuu :  3.72e-01   00u00uuuu0 :  2.04e-01   
00u000uuuu : -1.23e-01   00u00uuu0u : -3.04e-01   000u0uuu0u :  1.90e-01   
00u00uuuu0 :  1.20e-01   0u000uu0uu : -2.86e-01   u0000uu0uu : -1.32e-01   
000u0u0uuu :  1.16e-01   00u00u0uuu : -1.67e-01   000u0u0uuu :  1.12e-01   
000uuuuu00 :  1.14e-01   0u000uuuu0 :  1.36e-01   u00000uuuu : -1.07e-01   
00uu0u0u0u :  7.83e-02   0u0000uuuu : -9.92e-02   00u0uuu0u0 :  9.53e-02   
0u0u0uu00u :  7.73e-02   000uuuu0u0 :  8.72e-02   00u0u0uuu0 :  9.04e-02   
0u00uuuu00 : -7.11e-02   0000uuuuu0 :  7.43e-02   00uu00u0uu : -6.88e-02   
State 9/19               State 10/19              State 11/19              
00u00uuu0u : -5.86e-01   000u0uuuu0 :  5.41e-01   000u0u0uuu : -8.69e-01   
000u0uuuu0 : -4.75e-01   0u000uu0uu : -4.42e-01   0u000uuu0u : -3.01e-01   
000u0uu0uu : -3.97e-01   0u0000uuuu : -4.42e-01   00u00uu0uu :  2.51e-01   
000u00uuuu : -3.38e-01   000u00uuuu :  3.68e-01   0u000u0uuu :  1.65e-01   
00u00u0uuu :  2.69e-01   00u00uuu0u : -2.80e-01   00u000uuuu : -1.29e-01   
0u0000uuuu : -1.83e-01   000u0uu0uu : -2.46e-01   000uuu0uu0 : -1.25e-01   
u0000uuu0u :  9.44e-02   0u00u0uuu0 : -6.61e-02   0u0u0u00uu :  8.35e-02   
00u0uuuu00 : -8.26e-02   000uu0uuu0 :  5.96e-02   u0000uu0uu : -7.63e-02   
0000uuuuu0 : -6.09e-02   0u00uuu0u0 : -5.72e-02   u00u0u0u0u :  6.70e-02   
0uu00uu00u : -5.66e-02   00uu0u0uu0 :  5.38e-02   0000uu0uuu :  5.18e-02   
State 12/19              State 13/19              State 14/19              
0u000uuu0u :  7.32e-01   00u00uuu0u : -5.96e-01   000u0uu0uu : -5.14e-01   
000u0uuu0u :  4.37e-01   00u00u0uuu : -4.64e-01   00u00u0uuu : -4.67e-01   
000u0u0uuu : -3.51e-01   0u0000uuuu :  3.75e-01   000u00uuuu :  4.17e-01   
0u000u0uuu : -2.65e-01   0u000uu0uu :  3.40e-01   000u0uuuu0 : -3.44e-01   
00u00uuuu0 :  1.58e-01   000u0uuuu0 :  3.23e-01   0u000uuuu0 :  2.48e-01   
00u00uu0uu : -1.17e-01   u0000uuu0u :  1.26e-01   0u000uu0uu :  2.03e-01   
0u00uuuu00 :  1.04e-01   00u0uuuu00 : -8.55e-02   00u00uuu0u :  1.88e-01   
0u0u00uu0u : -7.51e-02   00u0uu0uu0 : -7.73e-02   0u0000uuuu : -1.68e-01   
0uu00u0u0u : -6.80e-02   0000uuuuu0 : -7.34e-02   u0000uuu0u : -1.17e-01   
000uuuuu00 :  6.05e-02   u0000u0uuu :  6.80e-02   000uu0uuu0 :  6.96e-02   
State 15/19              State 16/19              State 17/19              
00u000uuuu : -6.85e-01   0u000u0uuu :  8.12e-01   00u00uuuu0 :  7.63e-01   
00u00uu0uu :  4.55e-01   00u00uuuu0 : -4.01e-01   0u000u0uuu :  3.76e-01   
00u00uuuu0 :  3.65e-01   000u0uuu0u :  2.62e-01   00u00uu0uu : -3.71e-01   
0u000u0uuu :  2.29e-01   0u000uuu0u :  2.27e-01   00u000uuuu :  2.27e-01   
000u0u0uuu :  2.14e-01   0u00uu0uu0 :  1.20e-01   000u0uuu0u : -1.43e-01   
0u000uuu0u :  1.83e-01   00u000uuuu :  9.67e-02   u0000uuuu0 : -1.17e-01   
u00000uuuu :  1.15e-01   0u0u000uuu : -8.14e-02   u0000uu0uu :  1.12e-01   
00u0u0uuu0 : -1.01e-01   0000uu0uuu : -7.26e-02   00uu00uuu0 : -8.24e-02   
u0000uu0uu : -7.80e-02   00u00uu0uu : -6.89e-02   000u0u0uuu : -7.77e-02   
00u0uuu0u0 :  6.29e-02   uu000u0u0u : -5.97e-02   0uu00uu0u0 :  6.52e-02   
State 18/19              
0u0000uuuu : -7.36e-01   
0u000uu0uu :  4.57e-01   
000u0uu0uu :  2.68e-01   
000u00uuuu : -2.35e-01   
0u000uuuu0 : -1.94e-01   
00u00u0uuu : -1.93e-01   
0u00u0uuu0 : -1.10e-01   
000u0uuuu0 :  7.47e-02   
0uu0000uuu : -6.71e-02   
0u00uuu0u0 :  6.06e-02   
Leading 10 CSFs of 19 local primitive basis functions for fragment 1 in rootspace 23:
State 0/19               State 1/19               State 2/19               
0000uuuuuu :  9.57e-01   000u0uuuuu :  9.91e-01   00u00uuuuu :  9.59e-01   
00u00uuuuu :  2.49e-01   0u0u0uuu0u : -6.41e-02   0000uuuuuu : -2.50e-01   
000uuu0uuu : -6.19e-02   000uu0uuuu :  6.41e-02   00u0u0uuuu :  6.08e-02   
0u00uuuu0u : -6.18e-02   00uu0uu0uu : -6.18e-02   00uu0u0uuu :  6.01e-02   
00u0uuu0uu : -5.97e-02   u00u0uuuu0 : -5.63e-02   u0u00uuuu0 : -5.96e-02   
0u000uuuuu : -5.95e-02   u0uu0uu0u0 : -2.39e-02   0uu00uuu0u : -5.84e-02   
u000uuuuu0 : -5.41e-02   0u0uu0uu0u :  2.28e-02   0uuu0u0u0u :  2.19e-02   
u0u0uuu0u0 : -2.30e-02   00uuu0u0uu :  2.07e-02   0uu0u0uu0u :  2.18e-02   
0u0uuu0u0u : -2.18e-02   u00uu0uuu0 :  1.95e-02   00uuu00uuu : -2.12e-02   
00uuuu00uu : -1.96e-02   0uuu0uu00u : -1.94e-02   u0uu0u0uu0 :  1.91e-02   
State 3/19               State 4/19               State 5/19               
0u000uuuuu :  9.89e-01   u0000uuuuu :  9.90e-01   00u0uuuuu0 :  9.33e-01   
0u00u0uuuu :  6.59e-02   u0u00uu0uu :  6.86e-02   00uu0uuu0u :  2.97e-01   
0u0u0u0uuu :  6.54e-02   u00u0u0uuu :  6.38e-02   0u00uuuuu0 :  1.30e-01   
0uu00uu0uu :  6.05e-02   u000u0uuuu :  6.36e-02   0uu00uuuu0 :  6.30e-02   
0000uuuuuu :  5.77e-02   uu000uuu0u :  6.08e-02   00uuuu0uu0 : -6.14e-02   
uu000uuuu0 : -5.48e-02   uu00u0uu0u : -2.27e-02   0uu0uuuu00 :  6.05e-02   
uuu00uu0u0 :  2.39e-02   uu0u0u0u0u : -2.25e-02   00u0uu0uuu : -5.91e-02   
0u0uu00uuu : -2.13e-02   u00uu00uuu : -2.14e-02   00uu00uuuu :  5.84e-02   
0uu0u0u0uu : -2.07e-02   u0u0u0u0uu : -2.04e-02   000uuuuu0u : -3.93e-02   
0uuu0u00uu : -2.06e-02   u0uu0u00uu : -2.03e-02   u00u0uuuu0 :  3.21e-02   
State 6/19               State 7/19               State 8/19               
00uu0uuuu0 :  9.43e-01   000uuuuu0u :  9.06e-01   000uuuuuu0 :  7.37e-01   
00u0uuuu0u :  2.65e-01   00uu0uuu0u :  3.32e-01   00u0uuuu0u : -5.55e-01   
00u0u0uuuu :  9.92e-02   000uu0uuuu :  1.69e-01   00uu0u0uuu :  2.11e-01   
0u0u0uuuu0 : -9.56e-02   0u0u0uuu0u :  1.11e-01   0u00uuuu0u : -1.45e-01   
0uu00uuu0u :  7.42e-02   00u0uuuuu0 : -7.18e-02   0u0u0uuuu0 :  1.32e-01   
00uuu0uuu0 :  6.26e-02   00uu00uuuu :  7.01e-02   0uu00uuu0u :  1.19e-01   
0uuu0uuu00 :  6.10e-02   00uuuuu00u :  6.23e-02   00uu0uuuu0 :  1.09e-01   
000uuuuuu0 :  6.09e-02   00uu0uu0uu :  6.07e-02   u0u00uuuu0 :  9.48e-02   
000uuu0uuu :  3.21e-02   u00uuuuu00 : -5.52e-02   00u0uuu0uu :  8.27e-02   
u000uuuuu0 : -2.71e-02   u0u00uuu0u :  4.69e-02   000uuu0uuu :  7.26e-02   
State 9/19               State 10/19              State 11/19              
00uu0uuu0u :  7.22e-01   00u0uuuu0u : -5.86e-01   00u0uu0uuu : -6.21e-01   
000uu0uuuu : -3.75e-01   000uuuuuu0 : -5.14e-01   00uu00uuuu : -5.02e-01   
0u0u0uuu0u : -3.67e-01   000uuu0uuu :  3.44e-01   0uu00uuuu0 : -4.90e-01   
00u0uuuuu0 : -2.38e-01   0u00uuuu0u : -3.15e-01   00uu0uuu0u :  1.80e-01   
00uu00uuuu :  2.02e-01   00u0u0uuuu : -2.49e-01   0u00uuuuu0 : -1.52e-01   
000uuuuu0u : -1.91e-01   00uu0uuuu0 :  2.10e-01   0u00uu0uuu : -1.44e-01   
0u0u00uuuu : -1.34e-01   0u0u0uuuu0 : -1.39e-01   0u0u0uuu0u : -1.18e-01   
00uu0uu0uu :  1.19e-01   0uu00uuu0u : -1.17e-01   000uu0uuuu : -9.88e-02   
00u0uu0uuu :  1.03e-01   00u0uuu0uu :  1.01e-01   0u0u00uuuu :  7.23e-02   
0uu00uuuu0 :  9.63e-02   u000uuuuu0 : -6.74e-02   u0u00uuu0u : -6.47e-02   
State 12/19              State 13/19              State 14/19              
00u0uuu0uu : -6.03e-01   00uu0uu0uu :  5.90e-01   000uuuu0uu :  5.99e-01   
000uuu0uuu :  5.35e-01   000uu0uuuu :  5.53e-01   00u0uu0uuu :  4.40e-01   
00uu0u0uuu :  3.64e-01   00uu00uuuu :  3.81e-01   00uu00uuuu : -4.12e-01   
00u0u0uuuu : -2.89e-01   00u0uu0uuu : -2.64e-01   00uu0uu0uu :  3.26e-01   
00u0uuuu0u :  2.45e-01   000uuuuu0u : -2.15e-01   000uu0uuuu :  1.97e-01   
0u0u0uuuu0 :  1.36e-01   0u00uuuuu0 : -1.38e-01   0u0u00uuuu :  1.91e-01   
0u00uuu0uu : -1.05e-01   0u0u0uu0uu : -1.18e-01   0u00uu0uuu :  1.75e-01   
000uuuuuu0 :  7.56e-02   0u00uu0uuu : -1.03e-01   0uu00uuuu0 : -1.72e-01   
u000uuuuu0 :  7.33e-02   00uu0uuu0u :  7.83e-02   00uu0uuu0u :  9.91e-02   
u0u00u0uuu :  7.18e-02   u0u000uuuu :  7.33e-02   0uu00u0uuu : -6.65e-02   
State 15/19              State 16/19              State 17/19              
00u0u0uuuu :  6.06e-01   0uu00uuu0u : -5.87e-01   0uu00uuuu0 :  7.51e-01   
00uu0u0uuu : -5.36e-01   00uu0u0uuu : -3.71e-01   00u0uu0uuu : -3.64e-01   
000uuu0uuu :  3.54e-01   000uuuuuu0 :  3.09e-01   000uuuu0uu :  3.46e-01   
00u0uuu0uu : -3.17e-01   00u0u0uuuu : -2.76e-01   0u00uu0uuu : -2.47e-01   
0uu00uu0uu : -1.97e-01   0u00uuuu0u : -2.75e-01   00uu00uuuu : -2.16e-01   
0u00uuu0uu : -1.30e-01   00u0uuuu0u :  2.50e-01   0u0u00uuuu :  1.77e-01   
00u0uuuu0u : -1.16e-01   0u00u0uuuu : -2.19e-01   0uu00u0uuu :  1.18e-01   
0u0u0u0uuu :  1.16e-01   0u0u0u0uuu :  2.07e-01   0u0u0uu0uu :  7.13e-02   
0u00uuuu0u : -7.81e-02   00u0uuu0uu :  2.00e-01   0u00uuuuu0 :  6.21e-02   
0uu000uuuu : -6.50e-02   000uuu0uuu :  1.67e-01   00u0uuuuu0 : -5.70e-02   
State 18/19              
000uuuu0uu :  6.53e-01   
00uu00uuuu :  4.09e-01   
0u0u00uuuu : -3.75e-01   
0uu00uuuu0 : -2.58e-01   
0u0u0uu0uu :  2.15e-01   
00u0uu0uuu : -2.01e-01   
00uu0uuu0u : -1.57e-01   
00uu0uu0uu : -1.54e-01   
0u00uu0uuu : -1.24e-01   
000uu0uuuu : -1.19e-01   
All 33 rootspaces accounted for
