#INFO: **** input file is /project/lgagliardi/valayagarawal/lasscf/mof_nodes/Fe_Fe_Fe/production/30_16/lassi_r1_n8.py ****

import numpy as np
import sys
from pyscf import gto, scf, tools,lib, mcscf
from pyscf.mcscf import avas,project_init_guess
from pyscf import mcscf
from mrh.my_pyscf.tools import molden
from mrh.my_pyscf.mcscf import lasscf_async as asyn
mol_name='Fe_Fe_Fe.xyz' # Al-Fe-Fe MOF node
basis={'C': 'cc-pvdz','H': 'cc-pvdz','O': 'cc-pvtz','Al': 'cc-pvtz','Fe': 'cc-pvtz'}
n=8;
output='r1_n'+str(n)+'_ct.log'
mol=gto.M(atom=mol_name,verbose=4,spin=14,charge=0,basis=basis, output=output) #spin = 2S
mf=scf.RHF(mol)
mf=mf.density_fit()
mf.max_cycle=1
mf.kernel()
mf.mo_coeff=np.load('hf.npy')
mo_guess=np.load('las_30_16.npy')
las=asyn.LASSCF(mf,(10,10,10),((3,3),(0,5),(5,0)),spin_sub=(5,6,6),verbose=4)
las.set_fragments_(([17],[19],[22]),mo_guess)
las.mo_coeff=mo_guess
from mrh.my_pyscf.lassi import states
las=states.spin_shuffle(las)
las=states.all_single_excitations(las)
ncsf=las.get_ugg().ncsf_sub
from mrh.my_pyscf.mcscf.lasci import get_space_info
charges, spins, smults, wfnsyms = get_space_info (las)
lroots=np.minimum(n,ncsf)
lroots[charges.T==0] = 1
las.lasci()
las.lasci(lroots=lroots)
e_roots, si= las.lassi(opt=1)
#INFO: ******************** input file end ********************


System: uname_result(system='Linux', node='midway3-0544.rcc.local', release='4.18.0-305.3.1.el8.x86_64', version='#1 SMP Tue Jun 1 16:14:33 UTC 2021', machine='x86_64')  Threads 16
Python 3.9.12 (main, Apr  5 2022, 06:56:58) 
[GCC 7.5.0]
numpy 1.25.0  scipy 1.7.3
Date: Wed Feb 21 09:47:36 2024
PySCF version 2.5.0
PySCF path  /project/lgagliardi/shared/Apps/pyscf
GIT ORIG_HEAD 0bc590ffddec98eec5d2513a3d85274b7a791bc6
GIT HEAD (branch master) 6f8ce439fbe0c26ec4d226e2225b28c7f668f922

[ENV] PYSCF_MAX_MEMORY 256000
[CONFIG] conf_file /home/valayagarawal/.pyscf_conf.py
[INPUT] verbose = 4
[INPUT] num. atoms = 28
[INPUT] num. electrons = 224
[INPUT] charge = 0
[INPUT] spin (= nelec alpha-beta = 2S) = 14
[INPUT] symmetry False subgroup None
[INPUT] Mole.unit = angstrom
[INPUT] Symbol           X                Y                Z      unit          X                Y                Z       unit  Magmom
[INPUT]  1 O     -1.396530535900  -2.155053668200   1.497463409200 AA   -2.639060237443  -4.072461216637   2.829795724946 Bohr   0.0
[INPUT]  2 O     -1.424929947800  -0.157920218100   2.556757216000 AA   -2.692727348033  -0.298425961741   4.831570905245 Bohr   0.0
[INPUT]  3 C     -1.805663158200  -1.333357732900   2.354770590800 AA   -3.412208842215  -2.519680941252   4.449871502792 Bohr   0.0
[INPUT]  4 H     -2.611139823600  -1.698287376800   3.015172571600 AA   -4.934339139549  -3.209298022958   5.697850378625 Bohr   0.0
[INPUT]  5 O      1.422169433100  -0.172776606600  -2.448307975000 AA    2.687510731287  -0.326500467206  -4.626631541338 Bohr   0.0
[INPUT]  6 O      1.404243291500  -2.165442677100  -1.387375375500 AA    2.653635233193  -4.092093598164  -2.621759491661 Bohr   0.0
[INPUT]  7 C      1.812327532700  -1.345288486000  -2.246529163600 AA    3.424802684812  -2.542226797071  -4.245324850052 Bohr   0.0
[INPUT]  8 H      2.621336913500  -1.706173551000  -2.904090707500 AA    4.953608846728  -3.224200732367  -5.487936078069 Bohr   0.0
[INPUT]  9 O     -1.428899418000   2.343625706100   1.186473538000 AA   -2.700228559570   4.428810723019   2.242110040864 Bohr   0.0
[INPUT] 10 O     -1.403562858100  -2.165307124600  -1.387572278000 AA   -2.652349400421  -4.091837441063  -2.622131583459 Bohr   0.0
[INPUT] 11 O     -1.422998602300  -0.172362922600  -2.447964967100 AA   -2.689077633986  -0.325718717744  -4.625983350349 Bohr   0.0
[INPUT] 12 C     -1.812500488200  -1.345105901400  -2.246279413800 AA   -3.425129523338  -2.541881762182  -4.244852891331 Bohr   0.0
[INPUT] 13 H     -2.621699381200  -1.706195274400  -2.903496623700 AA   -4.954293811410  -3.224241783643  -5.486813422392 Bohr   0.0
[INPUT] 14 O      1.425112370600  -0.157194806200   2.556693752400 AA    2.693072077164  -0.297055131922   4.831450976423 Bohr   0.0
[INPUT] 15 O      1.397382094800  -2.154305542500   1.497360668900 AA    2.640669450543  -4.071047463958   2.829601573917 Bohr   0.0
[INPUT] 16 C      1.806221903800  -1.332524996000   2.354699920000 AA    3.413264718373  -2.518107296577   4.449737954335 Bohr   0.0
[INPUT] 17 H      2.611813123200  -1.697184247500   3.015110605000 AA    4.935611491393  -3.207213410701   5.697733278722 Bohr   0.0
[INPUT] 18 Fe    -0.000142986400   0.971642646100   1.624782043000 AA   -0.000270205136   1.836138492077   3.070393073381 Bohr   0.0
[INPUT] 19 O      1.428198548600   2.344050002400   1.186026051100 AA    2.698904108355   4.429612526822   2.241264413178 Bohr   0.0
[INPUT] 20 Fe    -0.000136422400   0.952927878000  -1.522872888500 AA   -0.000257800973   1.800772705883  -2.877812681790 Bohr   0.0
[INPUT] 21 O      1.423595106900   2.330128124700  -1.070103353900 AA    2.690204864312   4.403303990829  -2.022202263850 Bohr   0.0
[INPUT] 22 O     -1.423503945100   2.330456754100  -1.069656997800 AA   -2.690032593477   4.403925010392  -2.021358773066 Bohr   0.0
[INPUT] 23 Fe     0.000254998800  -1.941619777000   0.045888528400 AA    0.000481877894  -3.669129616569   0.086716750935 Bohr   0.0
[INPUT] 24 O     -0.000152138200  -0.071914987500   0.072147896200 AA   -0.000287499531  -0.135899630627   0.136339764282 Bohr   0.0
[INPUT] 25 C      1.815220274200   2.721515147600   0.054422244100 AA    3.430269173996   5.142918272819   0.102843136433 Bohr   0.0
[INPUT] 26 H      2.604057214900   3.492625268800   0.048831474800 AA    4.920954948859   6.600105213767   0.092278113631 Bohr   0.0
[INPUT] 27 C     -1.815568952400   2.721425035400   0.054846494400 AA   -3.430928080300   5.142747985441   0.103644853308 Bohr   0.0
[INPUT] 28 H     -2.604489027400   3.492449071900   0.049250759800 AA   -4.921770956221   6.599772249882   0.093070447449 Bohr   0.0

nuclear repulsion = 3848.37097509846
number of shells = 192
number of NR pGTOs = 1137
number of NR cGTOs = 708
basis = {'C': 'cc-pvdz', 'H': 'cc-pvdz', 'O': 'cc-pvtz', 'Al': 'cc-pvtz', 'Fe': 'cc-pvtz'}
ecp = {}
CPU time:         2.39


******** <class 'pyscf.df.df_jk.DFROHF'> ********
method = DFROHF
initial guess = minao
damping factor = 0
level_shift factor = 0
DIIS = <class 'pyscf.scf.diis.CDIIS'>
diis_start_cycle = 1
diis_space = 8
diis_damp = 0
SCF conv_tol = 1e-09
SCF conv_tol_grad = None
SCF max_cycles = 1
direct_scf = False
chkfile to save SCF result = /scratch/local/jobs/17683547/tmp8c0ikhtg
max_memory 256000 MB (current use 76 MB)
num. doubly occ = 105  num. singly occ = 14
Set gradient conv threshold to 3.16228e-05
******** <class 'pyscf.df.df.DF'> ********
auxbasis = None
max_memory = 256000
Even tempered Gaussians are generated as DF auxbasis for  Fe O H C
init E= -4989.57211323767
  HOMO = 0.143847996495848  LUMO = 0.151053031442121
cycle= 1 E= -4950.11181863296  delta_E= 39.5  |g|=   11  |ddm|= 94.9
SCF not converged.
SCF energy = -4950.11181863296
Built 23 spin(local Sz)-shuffled LAS states from 1 reference LAS states
Built 356 singly-excited LAS states from 24 reference LAS states
Entering product-state fixed-point CI iteration
Cycle 0: max grad = 1.873238e-01 ; sigma = 0.000000e+00
Cycle 1: max grad = 5.007448e-06 ; sigma = 3.324859e-02
Cycle 2: max grad = 4.883136e-07 ; sigma = 3.109690e-10
Cycle 3: max grad = 1.449011e-07 ; sigma = 6.536993e-13
Product_state fixed-point CI iteration converged after 3 cycles
Entering product-state fixed-point CI iteration
Cycle 0: max grad = 1.873238e-01 ; sigma = 0.000000e+00
Cycle 1: max grad = 8.393342e-06 ; sigma = 3.323276e-02
Cycle 2: max grad = 4.703701e-07 ; sigma = 3.119496e-10
Cycle 3: max grad = 1.106682e-07 ; sigma = 4.547474e-13
Product_state fixed-point CI iteration converged after 3 cycles
Entering product-state fixed-point CI iteration
Cycle 0: max grad = 1.873238e-01 ; sigma = 0.000000e+00
Cycle 1: max grad = 5.195778e-06 ; sigma = 3.323224e-02
Cycle 2: max grad = 4.785017e-07 ; sigma = 3.076650e-10
Cycle 3: max grad = 1.343621e-07 ; sigma = 4.760636e-13
Product_state fixed-point CI iteration converged after 3 cycles
Entering product-state fixed-point CI iteration
Cycle 0: max grad = 1.873238e-01 ; sigma = 0.000000e+00
Cycle 1: max grad = 8.013656e-06 ; sigma = 3.323159e-02
Cycle 2: max grad = 4.850830e-07 ; sigma = 3.077574e-10
Cycle 3: max grad = 1.418673e-07 ; sigma = 4.547474e-13
Product_state fixed-point CI iteration converged after 3 cycles
Entering product-state fixed-point CI iteration
Cycle 0: max grad = 1.873238e-01 ; sigma = 0.000000e+00
Cycle 1: max grad = 1.159688e-05 ; sigma = 3.323082e-02
Cycle 2: max grad = 4.899543e-07 ; sigma = 3.089440e-10
Cycle 3: max grad = 1.341507e-07 ; sigma = 6.252776e-13
Product_state fixed-point CI iteration converged after 3 cycles
Entering product-state fixed-point CI iteration
Cycle 0: max grad = 1.873238e-01 ; sigma = 0.000000e+00
Cycle 1: max grad = 5.106494e-06 ; sigma = 3.324512e-02
Cycle 2: max grad = 4.770350e-07 ; sigma = 3.036860e-10
Cycle 3: max grad = 1.217436e-07 ; sigma = 4.192202e-13
Product_state fixed-point CI iteration converged after 3 cycles
Entering product-state fixed-point CI iteration
Cycle 0: max grad = 1.873238e-01 ; sigma = 0.000000e+00
Cycle 1: max grad = 5.054501e-06 ; sigma = 3.324499e-02
Cycle 2: max grad = 4.789002e-07 ; sigma = 3.061160e-10
Cycle 3: max grad = 1.359328e-07 ; sigma = 4.476419e-13
Product_state fixed-point CI iteration converged after 3 cycles
Entering product-state fixed-point CI iteration
Cycle 0: max grad = 1.873238e-01 ; sigma = 0.000000e+00
Cycle 1: max grad = 5.016072e-06 ; sigma = 3.324473e-02
Cycle 2: max grad = 4.819321e-07 ; sigma = 3.067626e-10
Cycle 3: max grad = 1.431263e-07 ; sigma = 4.760636e-13
Product_state fixed-point CI iteration converged after 3 cycles
Entering product-state fixed-point CI iteration
Cycle 0: max grad = 1.873238e-01 ; sigma = 0.000000e+00
Cycle 1: max grad = 5.328184e-06 ; sigma = 3.324434e-02
Cycle 2: max grad = 4.859876e-07 ; sigma = 3.076011e-10
Cycle 3: max grad = 1.451070e-07 ; sigma = 5.258016e-13
Product_state fixed-point CI iteration converged after 3 cycles
Entering product-state fixed-point CI iteration
Cycle 0: max grad = 1.873238e-01 ; sigma = 0.000000e+00
Cycle 1: max grad = 7.126109e-06 ; sigma = 3.324381e-02
Cycle 2: max grad = 4.909646e-07 ; sigma = 3.071818e-10
Cycle 3: max grad = 1.432762e-07 ; sigma = 5.826450e-13
Product_state fixed-point CI iteration converged after 3 cycles
Entering product-state fixed-point CI iteration
Cycle 0: max grad = 1.873238e-01 ; sigma = 0.000000e+00
Cycle 1: max grad = 4.981450e-06 ; sigma = 3.324886e-02
Cycle 2: max grad = 4.842143e-07 ; sigma = 3.083258e-10
Cycle 3: max grad = 1.443163e-07 ; sigma = 6.608047e-13
Product_state fixed-point CI iteration converged after 3 cycles
Entering product-state fixed-point CI iteration
Cycle 0: max grad = 1.873238e-01 ; sigma = 0.000000e+00
Cycle 1: max grad = 4.968453e-06 ; sigma = 3.324899e-02
Cycle 2: max grad = 4.821577e-07 ; sigma = 3.069545e-10
Cycle 3: max grad = 1.440179e-07 ; sigma = 6.821210e-13
Product_state fixed-point CI iteration converged after 3 cycles
Entering product-state fixed-point CI iteration
Cycle 0: max grad = 1.873238e-01 ; sigma = 0.000000e+00
Cycle 1: max grad = 4.968453e-06 ; sigma = 3.324899e-02
Cycle 2: max grad = 4.821577e-07 ; sigma = 3.069829e-10
Cycle 3: max grad = 1.440179e-07 ; sigma = 6.679102e-13
Product_state fixed-point CI iteration converged after 3 cycles
Entering product-state fixed-point CI iteration
Cycle 0: max grad = 1.873238e-01 ; sigma = 0.000000e+00
Cycle 1: max grad = 4.981450e-06 ; sigma = 3.324886e-02
Cycle 2: max grad = 4.842143e-07 ; sigma = 3.082903e-10
Cycle 3: max grad = 1.443163e-07 ; sigma = 6.821210e-13
Product_state fixed-point CI iteration converged after 3 cycles
Entering product-state fixed-point CI iteration
Cycle 0: max grad = 1.873238e-01 ; sigma = 0.000000e+00
Cycle 1: max grad = 5.007448e-06 ; sigma = 3.324859e-02
Cycle 2: max grad = 4.883136e-07 ; sigma = 3.109761e-10
Cycle 3: max grad = 1.449011e-07 ; sigma = 6.465939e-13
Product_state fixed-point CI iteration converged after 3 cycles
Entering product-state fixed-point CI iteration
Cycle 0: max grad = 1.873238e-01 ; sigma = 0.000000e+00
Cycle 1: max grad = 7.126109e-06 ; sigma = 3.324381e-02
Cycle 2: max grad = 4.909646e-07 ; sigma = 3.071818e-10
Cycle 3: max grad = 1.432762e-07 ; sigma = 5.684342e-13
Product_state fixed-point CI iteration converged after 3 cycles
Entering product-state fixed-point CI iteration
Cycle 0: max grad = 1.873238e-01 ; sigma = 0.000000e+00
Cycle 1: max grad = 5.328184e-06 ; sigma = 3.324434e-02
Cycle 2: max grad = 4.859876e-07 ; sigma = 3.075868e-10
Cycle 3: max grad = 1.451070e-07 ; sigma = 4.973799e-13
Product_state fixed-point CI iteration converged after 3 cycles
Entering product-state fixed-point CI iteration
Cycle 0: max grad = 1.873238e-01 ; sigma = 0.000000e+00
Cycle 1: max grad = 5.016072e-06 ; sigma = 3.324473e-02
Cycle 2: max grad = 4.819321e-07 ; sigma = 3.067768e-10
Cycle 3: max grad = 1.431263e-07 ; sigma = 4.476419e-13
Product_state fixed-point CI iteration converged after 3 cycles
Entering product-state fixed-point CI iteration
Cycle 0: max grad = 1.873238e-01 ; sigma = 0.000000e+00
Cycle 1: max grad = 5.054501e-06 ; sigma = 3.324499e-02
Cycle 2: max grad = 4.789002e-07 ; sigma = 3.061160e-10
Cycle 3: max grad = 1.359328e-07 ; sigma = 4.263256e-13
Product_state fixed-point CI iteration converged after 3 cycles
Entering product-state fixed-point CI iteration
Cycle 0: max grad = 1.873238e-01 ; sigma = 0.000000e+00
Cycle 1: max grad = 5.106494e-06 ; sigma = 3.324512e-02
Cycle 2: max grad = 4.770350e-07 ; sigma = 3.036149e-10
Cycle 3: max grad = 1.217436e-07 ; sigma = 3.907985e-13
Product_state fixed-point CI iteration converged after 3 cycles
Entering product-state fixed-point CI iteration
Cycle 0: max grad = 1.873238e-01 ; sigma = 0.000000e+00
Cycle 1: max grad = 1.159688e-05 ; sigma = 3.323082e-02
Cycle 2: max grad = 4.899543e-07 ; sigma = 3.089582e-10
Cycle 3: max grad = 1.341507e-07 ; sigma = 5.826450e-13
Product_state fixed-point CI iteration converged after 3 cycles
Entering product-state fixed-point CI iteration
Cycle 0: max grad = 1.873238e-01 ; sigma = 0.000000e+00
Cycle 1: max grad = 8.013656e-06 ; sigma = 3.323159e-02
Cycle 2: max grad = 4.850830e-07 ; sigma = 3.077361e-10
Cycle 3: max grad = 1.418673e-07 ; sigma = 4.618528e-13
Product_state fixed-point CI iteration converged after 3 cycles
Entering product-state fixed-point CI iteration
Cycle 0: max grad = 1.873238e-01 ; sigma = 0.000000e+00
Cycle 1: max grad = 5.195778e-06 ; sigma = 3.323224e-02
Cycle 2: max grad = 4.785017e-07 ; sigma = 3.076792e-10
Cycle 3: max grad = 1.343621e-07 ; sigma = 4.547474e-13
Product_state fixed-point CI iteration converged after 3 cycles
Entering product-state fixed-point CI iteration
Cycle 0: max grad = 1.873238e-01 ; sigma = 0.000000e+00
Cycle 1: max grad = 8.393342e-06 ; sigma = 3.323276e-02
Cycle 2: max grad = 4.703701e-07 ; sigma = 3.119283e-10
Cycle 3: max grad = 1.106682e-07 ; sigma = 4.476419e-13
Product_state fixed-point CI iteration converged after 3 cycles
Entering product-state fixed-point CI iteration
Cycle 0: max grad = 3.084404e-01 ; sigma = 0.000000e+00
Cycle 1: max grad = 5.711789e-04 ; sigma = 1.352412e-01
Cycle 2: max grad = 1.452732e-05 ; sigma = 1.513263e-05
Cycle 3: max grad = 1.176024e-06 ; sigma = 1.732782e-08
Cycle 4: max grad = 1.366367e-06 ; sigma = 1.946177e-11
Product_state fixed-point CI iteration converged after 4 cycles
Entering product-state fixed-point CI iteration
Cycle 0: max grad = 2.547937e-01 ; sigma = 0.000000e+00
Cycle 1: max grad = 4.815814e-04 ; sigma = 1.359860e-01
Cycle 2: max grad = 1.807653e-05 ; sigma = 1.216662e-05
Cycle 3: max grad = 3.420270e-06 ; sigma = 1.995318e-09
Cycle 4: max grad = 1.546337e-06 ; sigma = 3.804956e-11
Product_state fixed-point CI iteration converged after 4 cycles
Entering product-state fixed-point CI iteration
Cycle 0: max grad = 3.079464e-01 ; sigma = 0.000000e+00
Cycle 1: max grad = 2.845244e-04 ; sigma = 1.198408e-01
Cycle 2: max grad = 1.805169e-06 ; sigma = 5.556600e-07
Cycle 3: max grad = 9.747491e-07 ; sigma = 6.266987e-12
Product_state fixed-point CI iteration converged after 3 cycles
Entering product-state fixed-point CI iteration
Cycle 0: max grad = 2.772840e-01 ; sigma = 0.000000e+00
Cycle 1: max grad = 1.717075e-04 ; sigma = 8.678474e-02
Cycle 2: max grad = 3.987589e-06 ; sigma = 6.077442e-07
Cycle 3: max grad = 6.055014e-09 ; sigma = 1.737277e-11
Product_state fixed-point CI iteration converged after 3 cycles
Entering product-state fixed-point CI iteration
Cycle 0: max grad = 2.512371e-01 ; sigma = 0.000000e+00
Cycle 1: max grad = 4.006408e-04 ; sigma = 1.324929e-01
Cycle 2: max grad = 4.241932e-06 ; sigma = 9.572396e-07
Cycle 3: max grad = 2.409434e-06 ; sigma = 4.612133e-11
Product_state fixed-point CI iteration converged after 3 cycles
Entering product-state fixed-point CI iteration
Cycle 0: max grad = 2.741853e-01 ; sigma = 0.000000e+00
Cycle 1: max grad = 7.594557e-05 ; sigma = 8.658336e-02
Cycle 2: max grad = 1.230359e-06 ; sigma = 1.453504e-07
Cycle 3: max grad = 8.177072e-10 ; sigma = 1.747935e-12
Product_state fixed-point CI iteration converged after 3 cycles
Entering product-state fixed-point CI iteration
Cycle 0: max grad = 3.079542e-01 ; sigma = 0.000000e+00
Cycle 1: max grad = 7.387247e-04 ; sigma = 1.724413e-01
Cycle 2: max grad = 1.826270e-06 ; sigma = 3.676750e-06
Cycle 3: max grad = 1.182346e-06 ; sigma = 1.303846e-11
Product_state fixed-point CI iteration converged after 3 cycles
Entering product-state fixed-point CI iteration
Cycle 0: max grad = 2.335124e-01 ; sigma = 0.000000e+00
Cycle 1: max grad = 1.138699e-03 ; sigma = 1.071161e-01
Cycle 2: max grad = 3.883442e-06 ; sigma = 5.254380e-06
Cycle 3: max grad = 8.258706e-07 ; sigma = 4.931167e-12
Product_state fixed-point CI iteration converged after 3 cycles
Entering product-state fixed-point CI iteration
Cycle 0: max grad = 3.087044e-01 ; sigma = 0.000000e+00
Cycle 1: max grad = 1.007437e-03 ; sigma = 8.484258e-02
Cycle 2: max grad = 7.073532e-06 ; sigma = 2.300858e-05
Cycle 3: max grad = 1.944761e-06 ; sigma = 2.937247e-08
Cycle 4: max grad = 1.543533e-06 ; sigma = 3.780798e-11
Product_state fixed-point CI iteration converged after 4 cycles
Entering product-state fixed-point CI iteration
Cycle 0: max grad = 2.338060e-01 ; sigma = 0.000000e+00
Cycle 1: max grad = 1.186773e-03 ; sigma = 1.811705e-02
Cycle 2: max grad = 6.852080e-05 ; sigma = 7.290054e-05
Cycle 3: max grad = 3.748276e-07 ; sigma = 1.927723e-08
Cycle 4: max grad = 1.023931e-07 ; sigma = 4.945377e-12
Product_state fixed-point CI iteration converged after 4 cycles
Entering product-state fixed-point CI iteration
Cycle 0: max grad = 2.547460e-01 ; sigma = 0.000000e+00
Cycle 1: max grad = 4.936163e-04 ; sigma = 1.360232e-01
Cycle 2: max grad = 1.829576e-05 ; sigma = 1.265955e-05
Cycle 3: max grad = 3.421650e-06 ; sigma = 2.252044e-09
Cycle 4: max grad = 1.665529e-06 ; sigma = 4.180833e-11
Product_state fixed-point CI iteration converged after 4 cycles
Entering product-state fixed-point CI iteration
Cycle 0: max grad = 2.773267e-01 ; sigma = 0.000000e+00
Cycle 1: max grad = 1.754666e-04 ; sigma = 8.679513e-02
Cycle 2: max grad = 3.943319e-06 ; sigma = 5.622977e-07
Cycle 3: max grad = 6.232591e-09 ; sigma = 1.639933e-11
Product_state fixed-point CI iteration converged after 3 cycles
Entering product-state fixed-point CI iteration
Cycle 0: max grad = 3.079833e-01 ; sigma = 0.000000e+00
Cycle 1: max grad = 5.807187e-04 ; sigma = 1.323307e-01
Cycle 2: max grad = 5.475820e-06 ; sigma = 5.386427e-06
Cycle 3: max grad = 1.468913e-04 ; sigma = 4.198828e-05
Cycle 4: max grad = 8.586861e-05 ; sigma = 8.594261e-05
Cycle 5: max grad = 1.926563e-06 ; sigma = 1.994864e-07
Cycle 6: max grad = 1.506086e-06 ; sigma = 4.996537e-11
Product_state fixed-point CI iteration converged after 6 cycles
Entering product-state fixed-point CI iteration
Cycle 0: max grad = 2.512839e-01 ; sigma = 0.000000e+00
Cycle 1: max grad = 3.935694e-04 ; sigma = 1.324123e-01
Cycle 2: max grad = 4.087708e-06 ; sigma = 8.824906e-07
Cycle 3: max grad = 2.407877e-06 ; sigma = 4.475709e-11
Product_state fixed-point CI iteration converged after 3 cycles
Entering product-state fixed-point CI iteration
Cycle 0: max grad = 3.079341e-01 ; sigma = 0.000000e+00
Cycle 1: max grad = 4.028879e-04 ; sigma = 1.197535e-01
Cycle 2: max grad = 1.954101e-04 ; sigma = 1.591532e-04
Cycle 3: max grad = 1.208111e-06 ; sigma = 3.131000e-08
Cycle 4: max grad = 3.706255e-07 ; sigma = 2.565059e-12
Product_state fixed-point CI iteration converged after 4 cycles
Entering product-state fixed-point CI iteration
Cycle 0: max grad = 2.741435e-01 ; sigma = 0.000000e+00
Cycle 1: max grad = 6.473407e-05 ; sigma = 8.657009e-02
Cycle 2: max grad = 1.156311e-06 ; sigma = 1.339561e-07
Cycle 3: max grad = 6.963529e-10 ; sigma = 1.477929e-12
Product_state fixed-point CI iteration converged after 3 cycles
Entering product-state fixed-point CI iteration
Cycle 0: max grad = 3.072455e-01 ; sigma = 0.000000e+00
Cycle 1: max grad = 7.042760e-04 ; sigma = 1.722186e-01
Cycle 2: max grad = 1.972049e-06 ; sigma = 3.577429e-06
Cycle 3: max grad = 1.090684e-06 ; sigma = 1.142553e-11
Product_state fixed-point CI iteration converged after 3 cycles
Entering product-state fixed-point CI iteration
Cycle 0: max grad = 2.330931e-01 ; sigma = 0.000000e+00
Cycle 1: max grad = 9.005135e-04 ; sigma = 1.019124e-01
Cycle 2: max grad = 4.964014e-06 ; sigma = 5.942117e-06
Cycle 3: max grad = 5.920423e-07 ; sigma = 1.693223e-11
Product_state fixed-point CI iteration converged after 3 cycles
Entering product-state fixed-point CI iteration
Cycle 0: max grad = 3.078324e-01 ; sigma = 0.000000e+00
Cycle 1: max grad = 1.082685e-03 ; sigma = 8.704211e-02
Cycle 2: max grad = 1.657582e-04 ; sigma = 1.941155e-04
Cycle 3: max grad = 2.853644e-06 ; sigma = 1.175189e-07
Cycle 4: max grad = 1.584452e-06 ; sigma = 2.687983e-11
Product_state fixed-point CI iteration converged after 4 cycles
Entering product-state fixed-point CI iteration
Cycle 0: max grad = 2.339118e-01 ; sigma = 0.000000e+00
Cycle 1: max grad = 6.662335e-04 ; sigma = 1.768062e-02
Cycle 2: max grad = 1.037545e-05 ; sigma = 1.384655e-05
Cycle 3: max grad = 2.501771e-06 ; sigma = 4.000306e-09
Cycle 4: max grad = 1.125700e-06 ; sigma = 2.180656e-11
Product_state fixed-point CI iteration converged after 4 cycles
Entering product-state fixed-point CI iteration
Cycle 0: max grad = 3.078814e-01 ; sigma = 0.000000e+00
Cycle 1: max grad = 2.905617e-04 ; sigma = 1.199536e-01
Cycle 2: max grad = 1.749707e-06 ; sigma = 4.880474e-07
Cycle 3: max grad = 9.241227e-07 ; sigma = 5.726974e-12
Product_state fixed-point CI iteration converged after 3 cycles
Entering product-state fixed-point CI iteration
Cycle 0: max grad = 2.770065e-01 ; sigma = 0.000000e+00
Cycle 1: max grad = 1.686923e-04 ; sigma = 8.675488e-02
Cycle 2: max grad = 3.811218e-06 ; sigma = 5.470114e-07
Cycle 3: max grad = 5.841607e-09 ; sigma = 1.444533e-11
Product_state fixed-point CI iteration converged after 3 cycles
Entering product-state fixed-point CI iteration
Cycle 0: max grad = 2.739681e-01 ; sigma = 0.000000e+00
Cycle 1: max grad = 7.716186e-05 ; sigma = 8.657492e-02
Cycle 2: max grad = 1.294026e-06 ; sigma = 1.710884e-07
Cycle 3: max grad = 7.875862e-10 ; sigma = 2.010836e-12
Product_state fixed-point CI iteration converged after 3 cycles
Entering product-state fixed-point CI iteration
Cycle 0: max grad = 3.072580e-01 ; sigma = 0.000000e+00
Cycle 1: max grad = 7.029674e-04 ; sigma = 1.721882e-01
Cycle 2: max grad = 1.944383e-06 ; sigma = 3.591082e-06
Cycle 3: max grad = 9.712246e-07 ; sigma = 9.350742e-12
Product_state fixed-point CI iteration converged after 3 cycles
Entering product-state fixed-point CI iteration
Cycle 0: max grad = 2.330887e-01 ; sigma = 0.000000e+00
Cycle 1: max grad = 8.942860e-04 ; sigma = 1.016753e-01
Cycle 2: max grad = 5.026175e-06 ; sigma = 6.181424e-06
Cycle 3: max grad = 6.346095e-07 ; sigma = 1.760725e-11
Product_state fixed-point CI iteration converged after 3 cycles
Entering product-state fixed-point CI iteration
Cycle 0: max grad = 2.339052e-01 ; sigma = 0.000000e+00
Cycle 1: max grad = 6.634669e-04 ; sigma = 1.749583e-02
Cycle 2: max grad = 1.014924e-05 ; sigma = 1.335690e-05
Cycle 3: max grad = 2.273803e-06 ; sigma = 3.620357e-09
Cycle 4: max grad = 1.024920e-06 ; sigma = 1.829648e-11
Product_state fixed-point CI iteration converged after 4 cycles
Entering product-state fixed-point CI iteration
Cycle 0: max grad = 3.079719e-01 ; sigma = 0.000000e+00
Cycle 1: max grad = 7.346865e-04 ; sigma = 1.723925e-01
Cycle 2: max grad = 1.951922e-06 ; sigma = 3.808908e-06
Cycle 3: max grad = 1.726738e-06 ; sigma = 2.241052e-11
Product_state fixed-point CI iteration converged after 3 cycles
Entering product-state fixed-point CI iteration
Cycle 0: max grad = 2.335199e-01 ; sigma = 0.000000e+00
Cycle 1: max grad = 1.136988e-03 ; sigma = 1.067604e-01
Cycle 2: max grad = 3.126115e-06 ; sigma = 4.016525e-06
Cycle 3: max grad = 8.875696e-07 ; sigma = 1.264056e-11
Product_state fixed-point CI iteration converged after 3 cycles
Entering product-state fixed-point CI iteration
Cycle 0: max grad = 3.086327e-01 ; sigma = 0.000000e+00
Cycle 1: max grad = 1.010632e-03 ; sigma = 8.507269e-02
Cycle 2: max grad = 8.620712e-06 ; sigma = 2.889624e-05
Cycle 3: max grad = 1.551807e-06 ; sigma = 1.700315e-08
Cycle 4: max grad = 2.403359e-06 ; sigma = 7.507310e-10
Cycle 5: max grad = 2.301057e-06 ; sigma = 3.258549e-11
Product_state fixed-point CI iteration converged after 5 cycles
Entering product-state fixed-point CI iteration
Cycle 0: max grad = 2.338041e-01 ; sigma = 0.000000e+00
Cycle 1: max grad = 1.183297e-03 ; sigma = 1.797490e-02
Cycle 2: max grad = 6.303806e-05 ; sigma = 5.955612e-05
Cycle 3: max grad = 3.685392e-07 ; sigma = 1.417509e-08
Cycle 4: max grad = 1.209959e-07 ; sigma = 3.687717e-12
Product_state fixed-point CI iteration converged after 4 cycles
Entering product-state fixed-point CI iteration
Cycle 0: max grad = 3.083973e-01 ; sigma = 0.000000e+00
Cycle 1: max grad = 5.639547e-04 ; sigma = 1.348337e-01
Cycle 2: max grad = 1.924063e-05 ; sigma = 1.901426e-05
Cycle 3: max grad = 1.593740e-06 ; sigma = 2.977016e-08
Cycle 4: max grad = 1.927473e-06 ; sigma = 2.988543e-11
Product_state fixed-point CI iteration converged after 4 cycles
Entering product-state fixed-point CI iteration
Cycle 0: max grad = 2.549131e-01 ; sigma = 0.000000e+00
Cycle 1: max grad = 4.695932e-04 ; sigma = 1.356115e-01
Cycle 2: max grad = 1.777416e-05 ; sigma = 1.146996e-05
Cycle 3: max grad = 1.754954e-06 ; sigma = 1.983054e-09
Cycle 4: max grad = 1.416408e-06 ; sigma = 3.156231e-11
Product_state fixed-point CI iteration converged after 4 cycles
Entering product-state fixed-point CI iteration
Cycle 0: max grad = 3.079043e-01 ; sigma = 0.000000e+00
Cycle 1: max grad = 2.872234e-04 ; sigma = 1.200276e-01
Cycle 2: max grad = 1.845561e-06 ; sigma = 5.913567e-07
Cycle 3: max grad = 7.713996e-07 ; sigma = 5.492495e-12
Product_state fixed-point CI iteration converged after 3 cycles
Entering product-state fixed-point CI iteration
Cycle 0: max grad = 2.771772e-01 ; sigma = 0.000000e+00
Cycle 1: max grad = 1.694586e-04 ; sigma = 8.677132e-02
Cycle 2: max grad = 3.979729e-06 ; sigma = 6.013145e-07
Cycle 3: max grad = 5.920253e-09 ; sigma = 1.656275e-11
Product_state fixed-point CI iteration converged after 3 cycles
Entering product-state fixed-point CI iteration
Cycle 0: max grad = 3.079785e-01 ; sigma = 0.000000e+00
Cycle 1: max grad = 5.929522e-04 ; sigma = 1.325406e-01
Cycle 2: max grad = 1.103055e-05 ; sigma = 6.997025e-06
Cycle 3: max grad = 5.490265e-05 ; sigma = 7.807459e-07
Cycle 4: max grad = 1.496904e-04 ; sigma = 1.405043e-04
Cycle 5: max grad = 1.460021e-06 ; sigma = 2.854529e-07
Cycle 6: max grad = 1.011577e-06 ; sigma = 1.021760e-11
Product_state fixed-point CI iteration converged after 6 cycles
Entering product-state fixed-point CI iteration
Cycle 0: max grad = 2.513274e-01 ; sigma = 0.000000e+00
Cycle 1: max grad = 3.926181e-04 ; sigma = 1.322428e-01
Cycle 2: max grad = 4.052508e-06 ; sigma = 9.197005e-07
Cycle 3: max grad = 2.330018e-06 ; sigma = 4.758505e-11
Product_state fixed-point CI iteration converged after 3 cycles
Entering product-state fixed-point CI iteration
Cycle 0: max grad = 3.079161e-01 ; sigma = 0.000000e+00
Cycle 1: max grad = 4.081746e-04 ; sigma = 1.192273e-01
Cycle 2: max grad = 1.703587e-04 ; sigma = 1.845465e-04
Cycle 3: max grad = 1.736063e-06 ; sigma = 2.731522e-08
Cycle 4: max grad = 1.225785e-06 ; sigma = 1.673328e-11
Product_state fixed-point CI iteration converged after 4 cycles
Entering product-state fixed-point CI iteration
Cycle 0: max grad = 2.741045e-01 ; sigma = 0.000000e+00
Cycle 1: max grad = 7.490575e-05 ; sigma = 8.657824e-02
Cycle 2: max grad = 1.199487e-06 ; sigma = 1.493561e-07
Cycle 3: max grad = 7.418730e-10 ; sigma = 1.705303e-12
Product_state fixed-point CI iteration converged after 3 cycles
Entering product-state fixed-point CI iteration
Cycle 0: max grad = 2.330885e-01 ; sigma = 0.000000e+00
Cycle 1: max grad = 8.874115e-04 ; sigma = 1.011249e-01
Cycle 2: max grad = 4.836006e-06 ; sigma = 5.600591e-06
Cycle 3: max grad = 6.170479e-07 ; sigma = 1.355716e-11
Product_state fixed-point CI iteration converged after 3 cycles
Entering product-state fixed-point CI iteration
Cycle 0: max grad = 3.078062e-01 ; sigma = 0.000000e+00
Cycle 1: max grad = 1.078843e-03 ; sigma = 8.708140e-02
Cycle 2: max grad = 1.829375e-04 ; sigma = 1.491394e-04
Cycle 3: max grad = 1.345608e-06 ; sigma = 1.493212e-07
Cycle 4: max grad = 2.046098e-06 ; sigma = 2.638956e-11
Product_state fixed-point CI iteration converged after 4 cycles
Entering product-state fixed-point CI iteration
Cycle 0: max grad = 2.339020e-01 ; sigma = 0.000000e+00
Cycle 1: max grad = 6.667719e-04 ; sigma = 1.729925e-02
Cycle 2: max grad = 9.223320e-06 ; sigma = 1.140242e-05
Cycle 3: max grad = 2.098490e-06 ; sigma = 3.039922e-09
Cycle 4: max grad = 9.437879e-07 ; sigma = 1.558931e-11
Product_state fixed-point CI iteration converged after 4 cycles
Entering product-state fixed-point CI iteration
Cycle 0: max grad = 3.078832e-01 ; sigma = 0.000000e+00
Cycle 1: max grad = 2.937039e-04 ; sigma = 1.197076e-01
Cycle 2: max grad = 1.660746e-06 ; sigma = 3.457765e-07
Cycle 3: max grad = 8.708716e-07 ; sigma = 6.231460e-12
Product_state fixed-point CI iteration converged after 3 cycles
Entering product-state fixed-point CI iteration
Cycle 0: max grad = 2.770492e-01 ; sigma = 0.000000e+00
Cycle 1: max grad = 1.686385e-04 ; sigma = 8.676562e-02
Cycle 2: max grad = 3.583367e-06 ; sigma = 4.797414e-07
Cycle 3: max grad = 5.866363e-09 ; sigma = 1.228528e-11
Product_state fixed-point CI iteration converged after 3 cycles
Entering product-state fixed-point CI iteration
Cycle 0: max grad = 3.079071e-01 ; sigma = 0.000000e+00
Cycle 1: max grad = 4.646346e-04 ; sigma = 1.189641e-01
Cycle 2: max grad = 1.659624e-04 ; sigma = 1.966418e-04
Cycle 3: max grad = 1.484471e-06 ; sigma = 2.615254e-08
Cycle 4: max grad = 1.678490e-06 ; sigma = 7.022813e-09
Cycle 5: max grad = 1.331416e-06 ; sigma = 2.109601e-11
Product_state fixed-point CI iteration converged after 5 cycles
Entering product-state fixed-point CI iteration
Cycle 0: max grad = 2.739263e-01 ; sigma = 0.000000e+00
Cycle 1: max grad = 6.595644e-05 ; sigma = 8.656164e-02
Cycle 2: max grad = 1.219451e-06 ; sigma = 1.576621e-07
Cycle 3: max grad = 7.225251e-10 ; sigma = 1.804779e-12
Product_state fixed-point CI iteration converged after 3 cycles
Entering product-state fixed-point CI iteration
Cycle 0: max grad = 3.072596e-01 ; sigma = 0.000000e+00
Cycle 1: max grad = 7.009910e-04 ; sigma = 1.721825e-01
Cycle 2: max grad = 1.965579e-06 ; sigma = 3.574542e-06
Cycle 3: max grad = 1.254207e-06 ; sigma = 1.396216e-11
Product_state fixed-point CI iteration converged after 3 cycles
Entering product-state fixed-point CI iteration
Cycle 0: max grad = 2.330885e-01 ; sigma = 0.000000e+00
Cycle 1: max grad = 8.948973e-04 ; sigma = 1.016295e-01
Cycle 2: max grad = 4.831776e-06 ; sigma = 5.550958e-06
Cycle 3: max grad = 5.948206e-07 ; sigma = 1.366374e-11
Product_state fixed-point CI iteration converged after 3 cycles
Entering product-state fixed-point CI iteration
Cycle 0: max grad = 3.079703e-01 ; sigma = 0.000000e+00
Cycle 1: max grad = 7.332116e-04 ; sigma = 1.723964e-01
Cycle 2: max grad = 1.899534e-06 ; sigma = 3.641343e-06
Cycle 3: max grad = 1.472935e-06 ; sigma = 1.735145e-11
Product_state fixed-point CI iteration converged after 3 cycles
Entering product-state fixed-point CI iteration
Cycle 0: max grad = 2.335142e-01 ; sigma = 0.000000e+00
Cycle 1: max grad = 1.133565e-03 ; sigma = 1.067972e-01
Cycle 2: max grad = 3.413572e-06 ; sigma = 4.424543e-06
Cycle 3: max grad = 9.335531e-07 ; sigma = 1.188738e-11
Product_state fixed-point CI iteration converged after 3 cycles
Entering product-state fixed-point CI iteration
Cycle 0: max grad = 3.086344e-01 ; sigma = 0.000000e+00
Cycle 1: max grad = 1.004157e-03 ; sigma = 8.504984e-02
Cycle 2: max grad = 7.549076e-06 ; sigma = 2.264260e-05
Cycle 3: max grad = 1.988559e-06 ; sigma = 5.652623e-09
Cycle 4: max grad = 1.863603e-06 ; sigma = 6.766776e-09
Cycle 5: max grad = 2.218688e-06 ; sigma = 5.257306e-10
Cycle 6: max grad = 1.028729e-06 ; sigma = 2.204814e-11
Product_state fixed-point CI iteration converged after 6 cycles
Entering product-state fixed-point CI iteration
Cycle 0: max grad = 2.337996e-01 ; sigma = 0.000000e+00
Cycle 1: max grad = 1.180539e-03 ; sigma = 1.775786e-02
Cycle 2: max grad = 6.099571e-05 ; sigma = 5.620502e-05
Cycle 3: max grad = 3.614130e-07 ; sigma = 1.448485e-08
Cycle 4: max grad = 1.312488e-07 ; sigma = 4.163780e-12
Product_state fixed-point CI iteration converged after 4 cycles
Entering product-state fixed-point CI iteration
Cycle 0: max grad = 3.083773e-01 ; sigma = 0.000000e+00
Cycle 1: max grad = 5.714650e-04 ; sigma = 1.350229e-01
Cycle 2: max grad = 9.079489e-06 ; sigma = 9.398293e-06
Cycle 3: max grad = 9.776753e-07 ; sigma = 6.631403e-09
Cycle 4: max grad = 8.597349e-07 ; sigma = 1.038103e-11
Product_state fixed-point CI iteration converged after 4 cycles
Entering product-state fixed-point CI iteration
Cycle 0: max grad = 2.548844e-01 ; sigma = 0.000000e+00
Cycle 1: max grad = 4.724645e-04 ; sigma = 1.356336e-01
Cycle 2: max grad = 1.752888e-05 ; sigma = 1.104011e-05
Cycle 3: max grad = 1.616885e-06 ; sigma = 1.773621e-09
Cycle 4: max grad = 1.362759e-06 ; sigma = 2.766143e-11
Product_state fixed-point CI iteration converged after 4 cycles
Entering product-state fixed-point CI iteration
Cycle 0: max grad = 3.078814e-01 ; sigma = 0.000000e+00
Cycle 1: max grad = 2.897859e-04 ; sigma = 1.199546e-01
Cycle 2: max grad = 1.751961e-06 ; sigma = 4.897068e-07
Cycle 3: max grad = 9.236205e-07 ; sigma = 5.599077e-12
Product_state fixed-point CI iteration converged after 3 cycles
Entering product-state fixed-point CI iteration
Cycle 0: max grad = 2.772029e-01 ; sigma = 0.000000e+00
Cycle 1: max grad = 1.679167e-04 ; sigma = 8.677792e-02
Cycle 2: max grad = 3.811110e-06 ; sigma = 5.469208e-07
Cycle 3: max grad = 5.839598e-09 ; sigma = 1.447376e-11
Product_state fixed-point CI iteration converged after 3 cycles
Entering product-state fixed-point CI iteration
Cycle 0: max grad = 3.079349e-01 ; sigma = 0.000000e+00
Cycle 1: max grad = 6.290231e-04 ; sigma = 1.323506e-01
Cycle 2: max grad = 1.815219e-06 ; sigma = 3.718224e-07
Cycle 3: max grad = 9.824900e-07 ; sigma = 2.267053e-08
Cycle 4: max grad = 1.597075e-06 ; sigma = 2.560085e-11
Product_state fixed-point CI iteration converged after 4 cycles
Entering product-state fixed-point CI iteration
Cycle 0: max grad = 2.513555e-01 ; sigma = 0.000000e+00
Cycle 1: max grad = 3.884344e-04 ; sigma = 1.321956e-01
Cycle 2: max grad = 3.960225e-06 ; sigma = 8.750233e-07
Cycle 3: max grad = 2.324081e-06 ; sigma = 4.709477e-11
Product_state fixed-point CI iteration converged after 3 cycles
Entering product-state fixed-point CI iteration
Cycle 0: max grad = 3.078774e-01 ; sigma = 0.000000e+00
Cycle 1: max grad = 4.058618e-04 ; sigma = 1.195454e-01
Cycle 2: max grad = 1.802836e-04 ; sigma = 2.130704e-04
Cycle 3: max grad = 8.882753e-07 ; sigma = 2.907490e-08
Cycle 4: max grad = 2.772447e-07 ; sigma = 8.526513e-13
Product_state fixed-point CI iteration converged after 4 cycles
Entering product-state fixed-point CI iteration
Cycle 0: max grad = 2.740794e-01 ; sigma = 0.000000e+00
Cycle 1: max grad = 6.817048e-05 ; sigma = 8.657027e-02
Cycle 2: max grad = 1.156124e-06 ; sigma = 1.422329e-07
Cycle 3: max grad = 6.709461e-10 ; sigma = 1.463718e-12
Product_state fixed-point CI iteration converged after 3 cycles
Entering product-state fixed-point CI iteration
Cycle 0: max grad = 2.330919e-01 ; sigma = 0.000000e+00
Cycle 1: max grad = 8.902331e-04 ; sigma = 1.010486e-01
Cycle 2: max grad = 4.508360e-06 ; sigma = 4.662077e-06
Cycle 3: max grad = 6.629639e-07 ; sigma = 1.212186e-11
Product_state fixed-point CI iteration converged after 3 cycles
Entering product-state fixed-point CI iteration
Cycle 0: max grad = 3.077648e-01 ; sigma = 0.000000e+00
Cycle 1: max grad = 1.085515e-03 ; sigma = 8.722145e-02
Cycle 2: max grad = 1.936666e-04 ; sigma = 1.467783e-04
Cycle 3: max grad = 2.688938e-06 ; sigma = 1.266224e-07
Cycle 4: max grad = 1.133044e-06 ; sigma = 1.664091e-11
Product_state fixed-point CI iteration converged after 4 cycles
Entering product-state fixed-point CI iteration
Cycle 0: max grad = 2.339038e-01 ; sigma = 0.000000e+00
Cycle 1: max grad = 6.704078e-04 ; sigma = 1.730225e-02
Cycle 2: max grad = 8.471912e-06 ; sigma = 1.092538e-05
Cycle 3: max grad = 1.807303e-06 ; sigma = 2.849156e-09
Cycle 4: max grad = 8.390050e-07 ; sigma = 1.248424e-11
Product_state fixed-point CI iteration converged after 4 cycles
Entering product-state fixed-point CI iteration
Cycle 0: max grad = 2.335236e-01 ; sigma = 0.000000e+00
Cycle 1: max grad = 1.131383e-03 ; sigma = 1.061965e-01
Cycle 2: max grad = 2.716462e-06 ; sigma = 3.547995e-06
Cycle 3: max grad = 8.405865e-07 ; sigma = 1.439560e-11
Product_state fixed-point CI iteration converged after 3 cycles
Entering product-state fixed-point CI iteration
Cycle 0: max grad = 3.079149e-01 ; sigma = 0.000000e+00
Cycle 1: max grad = 3.053320e-04 ; sigma = 1.193688e-01
Cycle 2: max grad = 1.819524e-06 ; sigma = 2.389119e-07
Cycle 3: max grad = 9.867334e-07 ; sigma = 7.261747e-12
Product_state fixed-point CI iteration converged after 3 cycles
Entering product-state fixed-point CI iteration
Cycle 0: max grad = 2.770919e-01 ; sigma = 0.000000e+00
Cycle 1: max grad = 1.704896e-04 ; sigma = 8.677619e-02
Cycle 2: max grad = 3.390085e-06 ; sigma = 4.276473e-07
Cycle 3: max grad = 6.002748e-09 ; sigma = 1.090683e-11
Product_state fixed-point CI iteration converged after 3 cycles
Entering product-state fixed-point CI iteration
Cycle 0: max grad = 3.078729e-01 ; sigma = 0.000000e+00
Cycle 1: max grad = 4.071661e-04 ; sigma = 1.194134e-01
Cycle 2: max grad = 1.740440e-04 ; sigma = 2.190922e-04
Cycle 3: max grad = 1.917814e-06 ; sigma = 2.823943e-08
Cycle 4: max grad = 9.701869e-07 ; sigma = 1.392664e-11
Product_state fixed-point CI iteration converged after 4 cycles
Entering product-state fixed-point CI iteration
Cycle 0: max grad = 2.738845e-01 ; sigma = 0.000000e+00
Cycle 1: max grad = 5.434203e-05 ; sigma = 8.654820e-02
Cycle 2: max grad = 1.165172e-06 ; sigma = 1.461185e-07
Cycle 3: max grad = 6.712301e-10 ; sigma = 1.612932e-12
Product_state fixed-point CI iteration converged after 3 cycles
Entering product-state fixed-point CI iteration
Cycle 0: max grad = 3.072612e-01 ; sigma = 0.000000e+00
Cycle 1: max grad = 7.003798e-04 ; sigma = 1.721768e-01
Cycle 2: max grad = 1.989095e-06 ; sigma = 3.636479e-06
Cycle 3: max grad = 1.482080e-06 ; sigma = 1.833200e-11
Product_state fixed-point CI iteration converged after 3 cycles
Entering product-state fixed-point CI iteration
Cycle 0: max grad = 2.330911e-01 ; sigma = 0.000000e+00
Cycle 1: max grad = 8.968695e-04 ; sigma = 1.015836e-01
Cycle 2: max grad = 4.644048e-06 ; sigma = 4.979221e-06
Cycle 3: max grad = 6.111850e-07 ; sigma = 1.171685e-11
Product_state fixed-point CI iteration converged after 3 cycles
Entering product-state fixed-point CI iteration
Cycle 0: max grad = 3.079688e-01 ; sigma = 0.000000e+00
Cycle 1: max grad = 7.336594e-04 ; sigma = 1.724000e-01
Cycle 2: max grad = 1.847906e-06 ; sigma = 3.619429e-06
Cycle 3: max grad = 1.265349e-06 ; sigma = 1.421796e-11
Product_state fixed-point CI iteration converged after 3 cycles
Entering product-state fixed-point CI iteration
Cycle 0: max grad = 2.335105e-01 ; sigma = 0.000000e+00
Cycle 1: max grad = 1.132066e-03 ; sigma = 1.068340e-01
Cycle 2: max grad = 3.702320e-06 ; sigma = 4.908992e-06
Cycle 3: max grad = 9.115447e-07 ; sigma = 9.229950e-12
Product_state fixed-point CI iteration converged after 3 cycles
Entering product-state fixed-point CI iteration
Cycle 0: max grad = 3.086721e-01 ; sigma = 0.000000e+00
Cycle 1: max grad = 9.986679e-04 ; sigma = 8.492444e-02
Cycle 2: max grad = 6.099848e-06 ; sigma = 1.729110e-05
Cycle 3: max grad = 1.898650e-06 ; sigma = 1.051733e-08
Cycle 4: max grad = 2.150049e-06 ; sigma = 4.376872e-10
Cycle 5: max grad = 1.082920e-06 ; sigma = 2.283684e-11
Product_state fixed-point CI iteration converged after 5 cycles
Entering product-state fixed-point CI iteration
Cycle 0: max grad = 2.337986e-01 ; sigma = 0.000000e+00
Cycle 1: max grad = 1.182381e-03 ; sigma = 1.773996e-02
Cycle 2: max grad = 6.186683e-05 ; sigma = 5.925198e-05
Cycle 3: max grad = 3.717529e-07 ; sigma = 1.714324e-08
Cycle 4: max grad = 1.361666e-07 ; sigma = 5.400125e-12
Product_state fixed-point CI iteration converged after 4 cycles
Entering product-state fixed-point CI iteration
Cycle 0: max grad = 3.083872e-01 ; sigma = 0.000000e+00
Cycle 1: max grad = 5.768626e-04 ; sigma = 1.352156e-01
Cycle 2: max grad = 5.199039e-06 ; sigma = 3.406800e-06
Cycle 3: max grad = 1.905090e-06 ; sigma = 7.686651e-10
Cycle 4: max grad = 2.055782e-06 ; sigma = 3.365841e-11
Product_state fixed-point CI iteration converged after 4 cycles
Entering product-state fixed-point CI iteration
Cycle 0: max grad = 2.548558e-01 ; sigma = 0.000000e+00
Cycle 1: max grad = 4.775326e-04 ; sigma = 1.356556e-01
Cycle 2: max grad = 1.750861e-05 ; sigma = 1.099348e-05
Cycle 3: max grad = 3.408596e-06 ; sigma = 1.689486e-09
Cycle 4: max grad = 1.673041e-06 ; sigma = 3.812772e-11
Product_state fixed-point CI iteration converged after 4 cycles
Entering product-state fixed-point CI iteration
Cycle 0: max grad = 3.078885e-01 ; sigma = 0.000000e+00
Cycle 1: max grad = 2.903647e-04 ; sigma = 1.197863e-01
Cycle 2: max grad = 1.644551e-06 ; sigma = 4.001227e-07
Cycle 3: max grad = 9.343774e-07 ; sigma = 6.082246e-12
Product_state fixed-point CI iteration converged after 3 cycles
Entering product-state fixed-point CI iteration
Cycle 0: max grad = 2.772285e-01 ; sigma = 0.000000e+00
Cycle 1: max grad = 1.682627e-04 ; sigma = 8.678433e-02
Cycle 2: max grad = 3.682353e-06 ; sigma = 5.087762e-07
Cycle 3: max grad = 5.872750e-09 ; sigma = 1.324452e-11
Product_state fixed-point CI iteration converged after 3 cycles
Entering product-state fixed-point CI iteration
Cycle 0: max grad = 3.079216e-01 ; sigma = 0.000000e+00
Cycle 1: max grad = 6.207919e-04 ; sigma = 1.321651e-01
Cycle 2: max grad = 4.589531e-06 ; sigma = 2.383803e-06
Cycle 3: max grad = 1.570758e-06 ; sigma = 8.126833e-09
Cycle 4: max grad = 1.174843e-06 ; sigma = 3.260681e-11
Product_state fixed-point CI iteration converged after 4 cycles
Entering product-state fixed-point CI iteration
Cycle 0: max grad = 2.513835e-01 ; sigma = 0.000000e+00
Cycle 1: max grad = 3.843154e-04 ; sigma = 1.321485e-01
Cycle 2: max grad = 3.910294e-06 ; sigma = 8.404051e-07
Cycle 3: max grad = 2.329348e-06 ; sigma = 4.626344e-11
Product_state fixed-point CI iteration converged after 3 cycles
Entering product-state fixed-point CI iteration
Cycle 0: max grad = 3.078691e-01 ; sigma = 0.000000e+00
Cycle 1: max grad = 4.037879e-04 ; sigma = 1.197827e-01
Cycle 2: max grad = 1.898013e-04 ; sigma = 2.164435e-04
Cycle 3: max grad = 1.381147e-06 ; sigma = 3.033817e-08
Cycle 4: max grad = 2.491242e-06 ; sigma = 5.367852e-09
Cycle 5: max grad = 1.432444e-06 ; sigma = 1.613003e-10
Cycle 6: max grad = 7.578947e-07 ; sigma = 1.413980e-11
Product_state fixed-point CI iteration converged after 6 cycles
Entering product-state fixed-point CI iteration
Cycle 0: max grad = 2.740543e-01 ; sigma = 0.000000e+00
Cycle 1: max grad = 6.103894e-05 ; sigma = 8.656213e-02
Cycle 2: max grad = 1.131007e-06 ; sigma = 1.361945e-07
Cycle 3: max grad = 6.322097e-10 ; sigma = 1.492140e-12
Product_state fixed-point CI iteration converged after 3 cycles
Entering product-state fixed-point CI iteration
Cycle 0: max grad = 2.330979e-01 ; sigma = 0.000000e+00
Cycle 1: max grad = 8.944131e-04 ; sigma = 1.009721e-01
Cycle 2: max grad = 4.183263e-06 ; sigma = 3.935373e-06
Cycle 3: max grad = 8.295344e-07 ; sigma = 1.212186e-11
Product_state fixed-point CI iteration converged after 3 cycles
Entering product-state fixed-point CI iteration
Cycle 0: max grad = 3.077598e-01 ; sigma = 0.000000e+00
Cycle 1: max grad = 1.091962e-03 ; sigma = 8.726317e-02
Cycle 2: max grad = 1.830094e-04 ; sigma = 1.608391e-04
Cycle 3: max grad = 2.632305e-06 ; sigma = 1.101351e-07
Cycle 4: max grad = 1.135726e-06 ; sigma = 1.587352e-11
Product_state fixed-point CI iteration converged after 4 cycles
Entering product-state fixed-point CI iteration
Cycle 0: max grad = 2.339104e-01 ; sigma = 0.000000e+00
Cycle 1: max grad = 6.743482e-04 ; sigma = 1.750471e-02
Cycle 2: max grad = 8.248915e-06 ; sigma = 1.103444e-05
Cycle 3: max grad = 1.500025e-06 ; sigma = 2.973763e-09
Cycle 4: max grad = 5.896605e-07 ; sigma = 8.384404e-12
Product_state fixed-point CI iteration converged after 4 cycles
Entering product-state fixed-point CI iteration
Cycle 0: max grad = 2.335161e-01 ; sigma = 0.000000e+00
Cycle 1: max grad = 1.127619e-03 ; sigma = 1.062578e-01
Cycle 2: max grad = 3.214199e-06 ; sigma = 4.129810e-06
Cycle 3: max grad = 8.718863e-07 ; sigma = 1.119105e-11
Product_state fixed-point CI iteration converged after 3 cycles
Entering product-state fixed-point CI iteration
Cycle 0: max grad = 2.771346e-01 ; sigma = 0.000000e+00
Cycle 1: max grad = 1.742724e-04 ; sigma = 8.678658e-02
Cycle 2: max grad = 3.271288e-06 ; sigma = 3.866925e-07
Cycle 3: max grad = 6.219643e-09 ; sigma = 1.030287e-11
Product_state fixed-point CI iteration converged after 3 cycles
Entering product-state fixed-point CI iteration
Cycle 0: max grad = 3.078691e-01 ; sigma = 0.000000e+00
Cycle 1: max grad = 4.038004e-04 ; sigma = 1.197817e-01
Cycle 2: max grad = 1.897965e-04 ; sigma = 2.164435e-04
Cycle 3: max grad = 1.381145e-06 ; sigma = 3.034018e-08
Cycle 4: max grad = 2.455940e-06 ; sigma = 5.369500e-09
Cycle 5: max grad = 1.414617e-06 ; sigma = 1.602842e-10
Cycle 6: max grad = 7.544731e-07 ; sigma = 1.389111e-11
Product_state fixed-point CI iteration converged after 6 cycles
Entering product-state fixed-point CI iteration
Cycle 0: max grad = 2.738427e-01 ; sigma = 0.000000e+00
Cycle 1: max grad = 5.112048e-05 ; sigma = 8.653458e-02
Cycle 2: max grad = 1.128886e-06 ; sigma = 1.361674e-07
Cycle 3: max grad = 6.315415e-10 ; sigma = 1.477929e-12
Product_state fixed-point CI iteration converged after 3 cycles
Entering product-state fixed-point CI iteration
Cycle 0: max grad = 3.072628e-01 ; sigma = 0.000000e+00
Cycle 1: max grad = 7.011324e-04 ; sigma = 1.721709e-01
Cycle 2: max grad = 2.017801e-06 ; sigma = 3.776752e-06
Cycle 3: max grad = 1.153441e-06 ; sigma = 9.215739e-12
Product_state fixed-point CI iteration converged after 3 cycles
Entering product-state fixed-point CI iteration
Cycle 0: max grad = 2.330963e-01 ; sigma = 0.000000e+00
Cycle 1: max grad = 9.002036e-04 ; sigma = 1.015375e-01
Cycle 2: max grad = 4.460051e-06 ; sigma = 4.477698e-06
Cycle 3: max grad = 6.712701e-07 ; sigma = 1.175238e-11
Product_state fixed-point CI iteration converged after 3 cycles
Entering product-state fixed-point CI iteration
Cycle 0: max grad = 3.079672e-01 ; sigma = 0.000000e+00
Cycle 1: max grad = 7.360319e-04 ; sigma = 1.724036e-01
Cycle 2: max grad = 1.797227e-06 ; sigma = 3.741015e-06
Cycle 3: max grad = 1.098187e-06 ; sigma = 1.157474e-11
Product_state fixed-point CI iteration converged after 3 cycles
Entering product-state fixed-point CI iteration
Cycle 0: max grad = 2.335087e-01 ; sigma = 0.000000e+00
Cycle 1: max grad = 1.132492e-03 ; sigma = 1.068707e-01
Cycle 2: max grad = 3.988671e-06 ; sigma = 5.464761e-06
Cycle 3: max grad = 8.673784e-07 ; sigma = 6.728840e-12
Product_state fixed-point CI iteration converged after 3 cycles
Entering product-state fixed-point CI iteration
Cycle 0: max grad = 2.338014e-01 ; sigma = 0.000000e+00
Cycle 1: max grad = 1.188349e-03 ; sigma = 1.792132e-02
Cycle 2: max grad = 6.510947e-05 ; sigma = 6.872017e-05
Cycle 3: max grad = 3.988014e-07 ; sigma = 2.266107e-08
Cycle 4: max grad = 1.326515e-07 ; sigma = 7.801759e-12
Product_state fixed-point CI iteration converged after 4 cycles
Entering product-state fixed-point CI iteration
Cycle 0: max grad = 3.084269e-01 ; sigma = 0.000000e+00
Cycle 1: max grad = 5.801867e-04 ; sigma = 1.354117e-01
Cycle 2: max grad = 2.458267e-06 ; sigma = 6.756948e-07
Cycle 3: max grad = 1.595593e-06 ; sigma = 1.930545e-11
Product_state fixed-point CI iteration converged after 3 cycles
Entering product-state fixed-point CI iteration
Cycle 0: max grad = 2.548271e-01 ; sigma = 0.000000e+00
Cycle 1: max grad = 4.847650e-04 ; sigma = 1.356774e-01
Cycle 2: max grad = 1.767718e-05 ; sigma = 1.129424e-05
Cycle 3: max grad = 3.319837e-06 ; sigma = 1.771625e-09
Cycle 4: max grad = 1.635204e-06 ; sigma = 3.848299e-11
Product_state fixed-point CI iteration converged after 4 cycles
Entering product-state fixed-point CI iteration
Cycle 0: max grad = 3.079254e-01 ; sigma = 0.000000e+00
Cycle 1: max grad = 2.954979e-04 ; sigma = 1.195212e-01
Cycle 2: max grad = 1.822120e-06 ; sigma = 3.223554e-07
Cycle 3: max grad = 9.110056e-07 ; sigma = 7.410961e-12
Product_state fixed-point CI iteration converged after 3 cycles
Entering product-state fixed-point CI iteration
Cycle 0: max grad = 2.772541e-01 ; sigma = 0.000000e+00
Cycle 1: max grad = 1.705110e-04 ; sigma = 8.679057e-02
Cycle 2: max grad = 3.589294e-06 ; sigma = 4.841578e-07
Cycle 3: max grad = 5.996307e-09 ; sigma = 1.272582e-11
Product_state fixed-point CI iteration converged after 3 cycles
Entering product-state fixed-point CI iteration
Cycle 0: max grad = 3.079385e-01 ; sigma = 0.000000e+00
Cycle 1: max grad = 6.111530e-04 ; sigma = 1.319842e-01
Cycle 2: max grad = 1.057995e-05 ; sigma = 1.067715e-05
Cycle 3: max grad = 2.222866e-06 ; sigma = 9.320900e-11
Product_state fixed-point CI iteration converged after 3 cycles
Entering product-state fixed-point CI iteration
Cycle 0: max grad = 2.514116e-01 ; sigma = 0.000000e+00
Cycle 1: max grad = 3.802601e-04 ; sigma = 1.321015e-01
Cycle 2: max grad = 3.903087e-06 ; sigma = 8.189855e-07
Cycle 3: max grad = 2.064138e-06 ; sigma = 2.525979e-11
Product_state fixed-point CI iteration converged after 3 cycles
Entering product-state fixed-point CI iteration
Cycle 0: max grad = 3.078910e-01 ; sigma = 0.000000e+00
Cycle 1: max grad = 4.019058e-04 ; sigma = 1.199394e-01
Cycle 2: max grad = 1.990306e-04 ; sigma = 1.943856e-04
Cycle 3: max grad = 2.244393e-06 ; sigma = 3.202031e-08
Cycle 4: max grad = 1.107761e-06 ; sigma = 1.841727e-11
Product_state fixed-point CI iteration converged after 4 cycles
Entering product-state fixed-point CI iteration
Cycle 0: max grad = 2.740293e-01 ; sigma = 0.000000e+00
Cycle 1: max grad = 5.352148e-05 ; sigma = 8.655382e-02
Cycle 2: max grad = 1.123031e-06 ; sigma = 1.311064e-07
Cycle 3: max grad = 6.157385e-10 ; sigma = 1.634248e-12
Product_state fixed-point CI iteration converged after 3 cycles
Entering product-state fixed-point CI iteration
Cycle 0: max grad = 2.335105e-01 ; sigma = 0.000000e+00
Cycle 1: max grad = 1.125775e-03 ; sigma = 1.063190e-01
Cycle 2: max grad = 3.707568e-06 ; sigma = 4.918985e-06
Cycle 3: max grad = 8.720843e-07 ; sigma = 7.261747e-12
Product_state fixed-point CI iteration converged after 3 cycles
Entering product-state fixed-point CI iteration
Cycle 0: max grad = 2.512994e-01 ; sigma = 0.000000e+00
Cycle 1: max grad = 3.968821e-04 ; sigma = 1.322900e-01
Cycle 2: max grad = 4.192029e-06 ; sigma = 9.730662e-07
Cycle 3: max grad = 2.358131e-06 ; sigma = 4.880718e-11
Product_state fixed-point CI iteration converged after 3 cycles
Entering product-state fixed-point CI iteration
Cycle 0: max grad = 2.741296e-01 ; sigma = 0.000000e+00
Cycle 1: max grad = 8.123027e-05 ; sigma = 8.658603e-02
Cycle 2: max grad = 1.262862e-06 ; sigma = 1.577435e-07
Cycle 3: max grad = 8.361598e-10 ; sigma = 1.897149e-12
Product_state fixed-point CI iteration converged after 3 cycles
Entering product-state fixed-point CI iteration
Cycle 0: max grad = 2.339125e-01 ; sigma = 0.000000e+00
Cycle 1: max grad = 6.630855e-04 ; sigma = 1.778196e-02
Cycle 2: max grad = 1.103464e-05 ; sigma = 1.553717e-05
Cycle 3: max grad = 9.507754e-07 ; sigma = 4.433851e-09
Cycle 4: max grad = 1.246108e-06 ; sigma = 1.242739e-11
Product_state fixed-point CI iteration converged after 4 cycles
Entering product-state fixed-point CI iteration
Cycle 0: max grad = 3.079563e-01 ; sigma = 0.000000e+00
Cycle 1: max grad = 7.368442e-04 ; sigma = 1.724365e-01
Cycle 2: max grad = 1.895957e-06 ; sigma = 3.615083e-06
Cycle 3: max grad = 1.447955e-06 ; sigma = 1.715961e-11
Product_state fixed-point CI iteration converged after 3 cycles
Entering product-state fixed-point CI iteration
Cycle 0: max grad = 2.335162e-01 ; sigma = 0.000000e+00
Cycle 1: max grad = 1.139416e-03 ; sigma = 1.070671e-01
Cycle 2: max grad = 3.504275e-06 ; sigma = 4.571177e-06
Cycle 3: max grad = 8.509492e-07 ; sigma = 7.780443e-12
Product_state fixed-point CI iteration converged after 3 cycles
Entering product-state fixed-point CI iteration
Cycle 0: max grad = 3.086587e-01 ; sigma = 0.000000e+00
Cycle 1: max grad = 1.010752e-03 ; sigma = 8.498843e-02
Cycle 2: max grad = 8.435951e-06 ; sigma = 2.776596e-05
Cycle 3: max grad = 2.253541e-06 ; sigma = 2.136344e-08
Cycle 4: max grad = 2.224568e-06 ; sigma = 1.044498e-11
Product_state fixed-point CI iteration converged after 4 cycles
Entering product-state fixed-point CI iteration
Cycle 0: max grad = 2.338051e-01 ; sigma = 0.000000e+00
Cycle 1: max grad = 1.183980e-03 ; sigma = 1.804070e-02
Cycle 2: max grad = 6.613482e-05 ; sigma = 6.620085e-05
Cycle 3: max grad = 3.620613e-07 ; sigma = 1.607592e-08
Cycle 4: max grad = 9.910786e-08 ; sigma = 3.915090e-12
Product_state fixed-point CI iteration converged after 4 cycles
Entering product-state fixed-point CI iteration
Cycle 0: max grad = 3.079809e-01 ; sigma = 0.000000e+00
Cycle 1: max grad = 5.927435e-04 ; sigma = 1.325848e-01
Cycle 2: max grad = 1.325108e-04 ; sigma = 1.370184e-04
Cycle 3: max grad = 1.752278e-06 ; sigma = 3.407301e-07
Cycle 4: max grad = 1.003820e-06 ; sigma = 1.576694e-11
Product_state fixed-point CI iteration converged after 4 cycles
Entering product-state fixed-point CI iteration
Cycle 0: max grad = 2.512465e-01 ; sigma = 0.000000e+00
Cycle 1: max grad = 3.991256e-04 ; sigma = 1.324771e-01
Cycle 2: max grad = 4.106400e-06 ; sigma = 9.254499e-07
Cycle 3: max grad = 2.383983e-06 ; sigma = 4.510525e-11
Product_state fixed-point CI iteration converged after 3 cycles
Entering product-state fixed-point CI iteration
Cycle 0: max grad = 3.079251e-01 ; sigma = 0.000000e+00
Cycle 1: max grad = 4.055544e-04 ; sigma = 1.194904e-01
Cycle 2: max grad = 1.828307e-04 ; sigma = 1.720367e-04
Cycle 3: max grad = 1.724531e-06 ; sigma = 2.930828e-08
Cycle 4: max grad = 1.363397e-06 ; sigma = 1.753619e-11
Product_state fixed-point CI iteration converged after 4 cycles
Entering product-state fixed-point CI iteration
Cycle 0: max grad = 2.741769e-01 ; sigma = 0.000000e+00
Cycle 1: max grad = 7.450131e-05 ; sigma = 8.658106e-02
Cycle 2: max grad = 1.178696e-06 ; sigma = 1.414529e-07
Cycle 3: max grad = 7.526957e-10 ; sigma = 1.634248e-12
Product_state fixed-point CI iteration converged after 3 cycles
Entering product-state fixed-point CI iteration
Cycle 0: max grad = 3.078193e-01 ; sigma = 0.000000e+00
Cycle 1: max grad = 1.078523e-03 ; sigma = 8.705477e-02
Cycle 2: max grad = 7.828586e-06 ; sigma = 1.406449e-05
Cycle 3: max grad = 1.546359e-04 ; sigma = 1.629327e-04
Cycle 4: max grad = 1.544900e-06 ; sigma = 1.669544e-07
Cycle 5: max grad = 1.509745e-06 ; sigma = 1.322320e-11
Product_state fixed-point CI iteration converged after 5 cycles
Entering product-state fixed-point CI iteration
Cycle 0: max grad = 2.339048e-01 ; sigma = 0.000000e+00
Cycle 1: max grad = 6.643225e-04 ; sigma = 1.743421e-02
Cycle 2: max grad = 9.796034e-06 ; sigma = 1.249688e-05
Cycle 3: max grad = 2.306856e-06 ; sigma = 3.514735e-09
Cycle 4: max grad = 1.038589e-06 ; sigma = 1.878675e-11
Product_state fixed-point CI iteration converged after 4 cycles
Entering product-state fixed-point CI iteration
Cycle 0: max grad = 3.072461e-01 ; sigma = 0.000000e+00
Cycle 1: max grad = 7.017999e-04 ; sigma = 1.722170e-01
Cycle 2: max grad = 1.981683e-06 ; sigma = 3.572818e-06
Cycle 3: max grad = 1.194942e-06 ; sigma = 1.322320e-11
Product_state fixed-point CI iteration converged after 3 cycles
Entering product-state fixed-point CI iteration
Cycle 0: max grad = 2.330895e-01 ; sigma = 0.000000e+00
Cycle 1: max grad = 8.988946e-04 ; sigma = 1.018973e-01
Cycle 2: max grad = 4.899660e-06 ; sigma = 5.743202e-06
Cycle 3: max grad = 5.763359e-07 ; sigma = 1.549694e-11
Product_state fixed-point CI iteration converged after 3 cycles
Entering product-state fixed-point CI iteration
Cycle 0: max grad = 3.079558e-01 ; sigma = 0.000000e+00
Cycle 1: max grad = 7.344282e-04 ; sigma = 1.724379e-01
Cycle 2: max grad = 1.869774e-06 ; sigma = 3.606301e-06
Cycle 3: max grad = 1.364804e-06 ; sigma = 1.588774e-11
Product_state fixed-point CI iteration converged after 3 cycles
Entering product-state fixed-point CI iteration
Cycle 0: max grad = 2.335124e-01 ; sigma = 0.000000e+00
Cycle 1: max grad = 1.136350e-03 ; sigma = 1.070795e-01
Cycle 2: max grad = 3.601195e-06 ; sigma = 4.729543e-06
Cycle 3: max grad = 8.544803e-07 ; sigma = 7.155165e-12
Product_state fixed-point CI iteration converged after 3 cycles
Entering product-state fixed-point CI iteration
Cycle 0: max grad = 3.086327e-01 ; sigma = 0.000000e+00
Cycle 1: max grad = 1.006742e-03 ; sigma = 8.505324e-02
Cycle 2: max grad = 7.887216e-06 ; sigma = 2.458487e-05
Cycle 3: max grad = 1.646371e-06 ; sigma = 1.540731e-08
Cycle 4: max grad = 2.341798e-06 ; sigma = 7.264802e-10
Cycle 5: max grad = 2.246330e-06 ; sigma = 3.362288e-11
Product_state fixed-point CI iteration converged after 5 cycles
Entering product-state fixed-point CI iteration
Cycle 0: max grad = 2.338000e-01 ; sigma = 0.000000e+00
Cycle 1: max grad = 1.179137e-03 ; sigma = 1.778275e-02
Cycle 2: max grad = 6.294783e-05 ; sigma = 5.945487e-05
Cycle 3: max grad = 3.434627e-07 ; sigma = 1.457089e-08
Cycle 4: max grad = 1.021061e-07 ; sigma = 3.822720e-12
Product_state fixed-point CI iteration converged after 4 cycles
Entering product-state fixed-point CI iteration
Cycle 0: max grad = 3.083939e-01 ; sigma = 0.000000e+00
Cycle 1: max grad = 5.763141e-04 ; sigma = 1.353065e-01
Cycle 2: max grad = 1.126095e-05 ; sigma = 1.197817e-05
Cycle 3: max grad = 1.078218e-06 ; sigma = 1.059494e-08
Cycle 4: max grad = 9.329971e-07 ; sigma = 1.234213e-11
Product_state fixed-point CI iteration converged after 4 cycles
Entering product-state fixed-point CI iteration
Cycle 0: max grad = 2.547842e-01 ; sigma = 0.000000e+00
Cycle 1: max grad = 4.796387e-04 ; sigma = 1.359938e-01
Cycle 2: max grad = 1.770077e-05 ; sigma = 1.149210e-05
Cycle 3: max grad = 1.615085e-06 ; sigma = 1.633012e-09
Cycle 4: max grad = 1.015930e-06 ; sigma = 2.788880e-11
Product_state fixed-point CI iteration converged after 4 cycles
Entering product-state fixed-point CI iteration
Cycle 0: max grad = 3.078990e-01 ; sigma = 0.000000e+00
Cycle 1: max grad = 2.879063e-04 ; sigma = 1.199464e-01
Cycle 2: max grad = 1.775264e-06 ; sigma = 5.230842e-07
Cycle 3: max grad = 9.466326e-07 ; sigma = 5.762502e-12
Product_state fixed-point CI iteration converged after 3 cycles
Entering product-state fixed-point CI iteration
Cycle 0: max grad = 2.772925e-01 ; sigma = 0.000000e+00
Cycle 1: max grad = 1.686725e-04 ; sigma = 8.678719e-02
Cycle 2: max grad = 3.880615e-06 ; sigma = 5.695642e-07
Cycle 3: max grad = 5.892344e-09 ; sigma = 1.546852e-11
Product_state fixed-point CI iteration converged after 3 cycles
Entering product-state fixed-point CI iteration
Cycle 0: max grad = 3.079361e-01 ; sigma = 0.000000e+00
Cycle 1: max grad = 6.348250e-04 ; sigma = 1.325206e-01
Cycle 2: max grad = 2.827381e-06 ; sigma = 1.018446e-06
Cycle 3: max grad = 1.690236e-06 ; sigma = 4.773497e-10
Cycle 4: max grad = 2.049118e-06 ; sigma = 2.581402e-11
Product_state fixed-point CI iteration converged after 4 cycles
Entering product-state fixed-point CI iteration
Cycle 0: max grad = 2.512558e-01 ; sigma = 0.000000e+00
Cycle 1: max grad = 3.976646e-04 ; sigma = 1.324611e-01
Cycle 2: max grad = 4.025581e-06 ; sigma = 9.027265e-07
Cycle 3: max grad = 2.371877e-06 ; sigma = 4.451550e-11
Product_state fixed-point CI iteration converged after 3 cycles
Entering product-state fixed-point CI iteration
Cycle 0: max grad = 3.078820e-01 ; sigma = 0.000000e+00
Cycle 1: max grad = 4.439951e-04 ; sigma = 1.198181e-01
Cycle 2: max grad = 2.102830e-06 ; sigma = 2.289379e-07
Cycle 3: max grad = 2.679890e-06 ; sigma = 1.835978e-08
Cycle 4: max grad = 5.509308e-07 ; sigma = 1.232792e-11
Product_state fixed-point CI iteration converged after 4 cycles
Entering product-state fixed-point CI iteration
Cycle 0: max grad = 2.741686e-01 ; sigma = 0.000000e+00
Cycle 1: max grad = 7.265126e-05 ; sigma = 8.657858e-02
Cycle 2: max grad = 1.146360e-06 ; sigma = 1.384334e-07
Cycle 3: max grad = 7.099252e-10 ; sigma = 1.492140e-12
Product_state fixed-point CI iteration converged after 3 cycles
Entering product-state fixed-point CI iteration
Cycle 0: max grad = 3.077714e-01 ; sigma = 0.000000e+00
Cycle 1: max grad = 1.082051e-03 ; sigma = 8.719825e-02
Cycle 2: max grad = 1.832322e-04 ; sigma = 1.578305e-04
Cycle 3: max grad = 6.192614e-07 ; sigma = 1.189129e-07
Cycle 4: max grad = 2.750179e-07 ; sigma = 4.760636e-13
Product_state fixed-point CI iteration converged after 4 cycles
Entering product-state fixed-point CI iteration
Cycle 0: max grad = 2.339020e-01 ; sigma = 0.000000e+00
Cycle 1: max grad = 6.659036e-04 ; sigma = 1.728607e-02
Cycle 2: max grad = 9.188863e-06 ; sigma = 1.151388e-05
Cycle 3: max grad = 2.179093e-06 ; sigma = 3.120668e-09
Cycle 4: max grad = 9.797877e-07 ; sigma = 1.675460e-11
Product_state fixed-point CI iteration converged after 4 cycles
Entering product-state fixed-point CI iteration
Cycle 0: max grad = 3.072466e-01 ; sigma = 0.000000e+00
Cycle 1: max grad = 7.006880e-04 ; sigma = 1.722151e-01
Cycle 2: max grad = 1.990533e-06 ; sigma = 3.576911e-06
Cycle 3: max grad = 1.317487e-06 ; sigma = 1.537614e-11
Product_state fixed-point CI iteration converged after 3 cycles
Entering product-state fixed-point CI iteration
Cycle 0: max grad = 2.330885e-01 ; sigma = 0.000000e+00
Cycle 1: max grad = 8.986432e-04 ; sigma = 1.018821e-01
Cycle 2: max grad = 4.836996e-06 ; sigma = 5.542914e-06
Cycle 3: max grad = 5.650107e-07 ; sigma = 1.416112e-11
Product_state fixed-point CI iteration converged after 3 cycles
Entering product-state fixed-point CI iteration
Cycle 0: max grad = 3.079552e-01 ; sigma = 0.000000e+00
Cycle 1: max grad = 7.339361e-04 ; sigma = 1.724391e-01
Cycle 2: max grad = 1.849430e-06 ; sigma = 3.613722e-06
Cycle 3: max grad = 1.292753e-06 ; sigma = 1.470823e-11
Product_state fixed-point CI iteration converged after 3 cycles
Entering product-state fixed-point CI iteration
Cycle 0: max grad = 2.335105e-01 ; sigma = 0.000000e+00
Cycle 1: max grad = 1.135208e-03 ; sigma = 1.070918e-01
Cycle 2: max grad = 3.696739e-06 ; sigma = 4.896399e-06
Cycle 3: max grad = 8.515429e-07 ; sigma = 6.409095e-12
Product_state fixed-point CI iteration converged after 3 cycles
Entering product-state fixed-point CI iteration
Cycle 0: max grad = 3.086425e-01 ; sigma = 0.000000e+00
Cycle 1: max grad = 1.003738e-03 ; sigma = 8.501601e-02
Cycle 2: max grad = 7.234553e-06 ; sigma = 2.158996e-05
Cycle 3: max grad = 1.700432e-06 ; sigma = 1.327343e-08
Cycle 4: max grad = 2.199814e-06 ; sigma = 6.588010e-10
Cycle 5: max grad = 2.415827e-06 ; sigma = 3.119283e-11
Product_state fixed-point CI iteration converged after 5 cycles
Entering product-state fixed-point CI iteration
Cycle 0: max grad = 2.337986e-01 ; sigma = 0.000000e+00
Cycle 1: max grad = 1.178917e-03 ; sigma = 1.772400e-02
Cycle 2: max grad = 6.267096e-05 ; sigma = 5.939080e-05
Cycle 3: max grad = 3.443328e-07 ; sigma = 1.525172e-08
Cycle 4: max grad = 1.077909e-07 ; sigma = 4.206413e-12
Product_state fixed-point CI iteration converged after 4 cycles
Entering product-state fixed-point CI iteration
Cycle 0: max grad = 3.083773e-01 ; sigma = 0.000000e+00
Cycle 1: max grad = 5.794496e-04 ; sigma = 1.353719e-01
Cycle 2: max grad = 8.692529e-06 ; sigma = 9.284043e-06
Cycle 3: max grad = 9.325652e-07 ; sigma = 6.117503e-09
Cycle 4: max grad = 8.796887e-07 ; sigma = 8.853362e-12
Product_state fixed-point CI iteration converged after 4 cycles
Entering product-state fixed-point CI iteration
Cycle 0: max grad = 2.547746e-01 ; sigma = 0.000000e+00
Cycle 1: max grad = 4.798760e-04 ; sigma = 1.360014e-01
Cycle 2: max grad = 1.754040e-05 ; sigma = 1.121818e-05
Cycle 3: max grad = 1.558543e-06 ; sigma = 1.521791e-09
Cycle 4: max grad = 9.834866e-07 ; sigma = 2.586376e-11
Product_state fixed-point CI iteration converged after 4 cycles
Entering product-state fixed-point CI iteration
Cycle 0: max grad = 3.078814e-01 ; sigma = 0.000000e+00
Cycle 1: max grad = 2.893972e-04 ; sigma = 1.199551e-01
Cycle 2: max grad = 1.753117e-06 ; sigma = 4.903706e-07
Cycle 3: max grad = 9.233627e-07 ; sigma = 5.556444e-12
Product_state fixed-point CI iteration converged after 3 cycles
Entering product-state fixed-point CI iteration
Cycle 0: max grad = 2.773010e-01 ; sigma = 0.000000e+00
Cycle 1: max grad = 1.675282e-04 ; sigma = 8.678945e-02
Cycle 2: max grad = 3.811058e-06 ; sigma = 5.468752e-07
Cycle 3: max grad = 5.838590e-09 ; sigma = 1.455192e-11
Product_state fixed-point CI iteration converged after 3 cycles
Entering product-state fixed-point CI iteration
Cycle 0: max grad = 3.079216e-01 ; sigma = 0.000000e+00
Cycle 1: max grad = 6.325666e-04 ; sigma = 1.324569e-01
Cycle 2: max grad = 4.807993e-06 ; sigma = 2.571181e-06
Cycle 3: max grad = 2.146226e-06 ; sigma = 2.248868e-11
Product_state fixed-point CI iteration converged after 3 cycles
Entering product-state fixed-point CI iteration
Cycle 0: max grad = 2.512652e-01 ; sigma = 0.000000e+00
Cycle 1: max grad = 3.962532e-04 ; sigma = 1.324449e-01
Cycle 2: max grad = 3.996068e-06 ; sigma = 8.882003e-07
Cycle 3: max grad = 2.371987e-06 ; sigma = 4.428813e-11
Product_state fixed-point CI iteration converged after 3 cycles
Entering product-state fixed-point CI iteration
Cycle 0: max grad = 3.078691e-01 ; sigma = 0.000000e+00
Cycle 1: max grad = 4.037818e-04 ; sigma = 1.197831e-01
Cycle 2: max grad = 1.898038e-04 ; sigma = 2.164432e-04
Cycle 3: max grad = 1.381148e-06 ; sigma = 3.033743e-08
Cycle 4: max grad = 2.509094e-06 ; sigma = 5.367184e-09
Cycle 5: max grad = 1.441518e-06 ; sigma = 1.618403e-10
Cycle 6: max grad = 7.596530e-07 ; sigma = 1.413270e-11
Product_state fixed-point CI iteration converged after 6 cycles
Entering product-state fixed-point CI iteration
Cycle 0: max grad = 2.741602e-01 ; sigma = 0.000000e+00
Cycle 1: max grad = 7.040418e-05 ; sigma = 8.657592e-02
Cycle 2: max grad = 1.132130e-06 ; sigma = 1.362077e-07
Cycle 3: max grad = 6.865784e-10 ; sigma = 1.485034e-12
Product_state fixed-point CI iteration converged after 3 cycles
Entering product-state fixed-point CI iteration
Cycle 0: max grad = 3.077598e-01 ; sigma = 0.000000e+00
Cycle 1: max grad = 1.085339e-03 ; sigma = 8.724376e-02
Cycle 2: max grad = 1.832238e-04 ; sigma = 1.607347e-04
Cycle 3: max grad = 2.739613e-06 ; sigma = 1.103787e-07
Cycle 4: max grad = 1.197037e-06 ; sigma = 1.755041e-11
Product_state fixed-point CI iteration converged after 4 cycles
Entering product-state fixed-point CI iteration
Cycle 0: max grad = 2.339041e-01 ; sigma = 0.000000e+00
Cycle 1: max grad = 6.677951e-04 ; sigma = 1.733743e-02
Cycle 2: max grad = 8.674061e-06 ; sigma = 1.126391e-05
Cycle 3: max grad = 1.948664e-06 ; sigma = 3.105768e-09
Cycle 4: max grad = 9.084602e-07 ; sigma = 1.445954e-11
Product_state fixed-point CI iteration converged after 4 cycles
Entering product-state fixed-point CI iteration
Cycle 0: max grad = 3.072472e-01 ; sigma = 0.000000e+00
Cycle 1: max grad = 7.009381e-04 ; sigma = 1.722131e-01
Cycle 2: max grad = 1.998698e-06 ; sigma = 3.589773e-06
Cycle 3: max grad = 1.450380e-06 ; sigma = 1.764988e-11
Product_state fixed-point CI iteration converged after 3 cycles
Entering product-state fixed-point CI iteration
Cycle 0: max grad = 2.330903e-01 ; sigma = 0.000000e+00
Cycle 1: max grad = 8.997569e-04 ; sigma = 1.018667e-01
Cycle 2: max grad = 4.776936e-06 ; sigma = 5.345481e-06
Cycle 3: max grad = 5.633053e-07 ; sigma = 1.327294e-11
Product_state fixed-point CI iteration converged after 3 cycles
Entering product-state fixed-point CI iteration
Cycle 0: max grad = 3.079547e-01 ; sigma = 0.000000e+00
Cycle 1: max grad = 7.353673e-04 ; sigma = 1.724403e-01
Cycle 2: max grad = 1.834931e-06 ; sigma = 3.637244e-06
Cycle 3: max grad = 1.231690e-06 ; sigma = 1.392664e-11
Product_state fixed-point CI iteration converged after 3 cycles
Entering product-state fixed-point CI iteration
Cycle 0: max grad = 2.335105e-01 ; sigma = 0.000000e+00
Cycle 1: max grad = 1.135990e-03 ; sigma = 1.071040e-01
Cycle 2: max grad = 3.790839e-06 ; sigma = 5.071437e-06
Cycle 3: max grad = 8.420237e-07 ; sigma = 5.961454e-12
Product_state fixed-point CI iteration converged after 3 cycles
Entering product-state fixed-point CI iteration
Cycle 0: max grad = 3.086882e-01 ; sigma = 0.000000e+00
Cycle 1: max grad = 1.001718e-03 ; sigma = 8.487637e-02
Cycle 2: max grad = 6.218961e-06 ; sigma = 1.876447e-05
Cycle 3: max grad = 1.785728e-06 ; sigma = 1.260491e-08
Cycle 4: max grad = 2.298416e-06 ; sigma = 7.035084e-10
Cycle 5: max grad = 2.394457e-06 ; sigma = 3.611689e-11
Product_state fixed-point CI iteration converged after 5 cycles
Entering product-state fixed-point CI iteration
Cycle 0: max grad = 2.338009e-01 ; sigma = 0.000000e+00
Cycle 1: max grad = 1.183209e-03 ; sigma = 1.786446e-02
Cycle 2: max grad = 6.515194e-05 ; sigma = 6.589125e-05
Cycle 3: max grad = 3.640875e-07 ; sigma = 1.828044e-08
Cycle 4: max grad = 1.165730e-07 ; sigma = 5.172751e-12
Product_state fixed-point CI iteration converged after 4 cycles
Entering product-state fixed-point CI iteration
Cycle 0: max grad = 3.083905e-01 ; sigma = 0.000000e+00
Cycle 1: max grad = 5.805306e-04 ; sigma = 1.354377e-01
Cycle 2: max grad = 7.234010e-06 ; sigma = 6.998069e-06
Cycle 3: max grad = 8.055427e-07 ; sigma = 3.301629e-09
Cycle 4: max grad = 1.132649e-06 ; sigma = 6.693313e-12
Product_state fixed-point CI iteration converged after 4 cycles
Entering product-state fixed-point CI iteration
Cycle 0: max grad = 2.547651e-01 ; sigma = 0.000000e+00
Cycle 1: max grad = 4.823060e-04 ; sigma = 1.360088e-01
Cycle 2: max grad = 1.760709e-05 ; sigma = 1.132841e-05
Cycle 3: max grad = 1.575255e-06 ; sigma = 1.572687e-09
Cycle 4: max grad = 9.870176e-07 ; sigma = 2.654588e-11
Product_state fixed-point CI iteration converged after 4 cycles
Entering product-state fixed-point CI iteration
Cycle 0: max grad = 3.078937e-01 ; sigma = 0.000000e+00
Cycle 1: max grad = 2.889537e-04 ; sigma = 1.198659e-01
Cycle 2: max grad = 1.712460e-06 ; sigma = 4.592590e-07
Cycle 3: max grad = 9.466192e-07 ; sigma = 5.897505e-12
Product_state fixed-point CI iteration converged after 3 cycles
Entering product-state fixed-point CI iteration
Cycle 0: max grad = 2.773096e-01 ; sigma = 0.000000e+00
Cycle 1: max grad = 1.682737e-04 ; sigma = 8.679153e-02
Cycle 2: max grad = 3.781463e-06 ; sigma = 5.387173e-07
Cycle 3: max grad = 5.878979e-09 ; sigma = 1.426059e-11
Product_state fixed-point CI iteration converged after 3 cycles
Entering product-state fixed-point CI iteration
Cycle 0: max grad = 3.079373e-01 ; sigma = 0.000000e+00
Cycle 1: max grad = 6.287666e-04 ; sigma = 1.323936e-01
Cycle 2: max grad = 6.836664e-06 ; sigma = 4.648026e-06
Cycle 3: max grad = 2.106096e-06 ; sigma = 9.696137e-10
Cycle 4: max grad = 1.839772e-06 ; sigma = 3.102230e-11
Product_state fixed-point CI iteration converged after 4 cycles
Entering product-state fixed-point CI iteration
Cycle 0: max grad = 2.512745e-01 ; sigma = 0.000000e+00
Cycle 1: max grad = 3.948887e-04 ; sigma = 1.324287e-01
Cycle 2: max grad = 4.016557e-06 ; sigma = 8.814548e-07
Cycle 3: max grad = 2.383825e-06 ; sigma = 4.438050e-11
Product_state fixed-point CI iteration converged after 3 cycles
Entering product-state fixed-point CI iteration
Cycle 0: max grad = 3.078865e-01 ; sigma = 0.000000e+00
Cycle 1: max grad = 4.032305e-04 ; sigma = 1.198084e-01
Cycle 2: max grad = 1.927634e-04 ; sigma = 2.007122e-04
Cycle 3: max grad = 6.977680e-07 ; sigma = 3.096277e-08
Cycle 4: max grad = 1.433936e-06 ; sigma = 5.819345e-12
Product_state fixed-point CI iteration converged after 4 cycles
Entering product-state fixed-point CI iteration
Cycle 0: max grad = 2.741518e-01 ; sigma = 0.000000e+00
Cycle 1: max grad = 6.776476e-05 ; sigma = 8.657309e-02
Cycle 2: max grad = 1.135435e-06 ; sigma = 1.347237e-07
Cycle 3: max grad = 6.817465e-10 ; sigma = 1.470823e-12
Product_state fixed-point CI iteration converged after 3 cycles
Entering product-state fixed-point CI iteration
Cycle 0: max grad = 3.077845e-01 ; sigma = 0.000000e+00
Cycle 1: max grad = 1.088356e-03 ; sigma = 8.719149e-02
Cycle 2: max grad = 1.740726e-04 ; sigma = 1.801691e-04
Cycle 3: max grad = 2.873104e-06 ; sigma = 1.054859e-07
Cycle 4: max grad = 1.547494e-06 ; sigma = 2.869172e-11
Product_state fixed-point CI iteration converged after 4 cycles
Entering product-state fixed-point CI iteration
Cycle 0: max grad = 2.339111e-01 ; sigma = 0.000000e+00
Cycle 1: max grad = 6.699904e-04 ; sigma = 1.758825e-02
Cycle 2: max grad = 9.301940e-06 ; sigma = 1.235733e-05
Cycle 3: max grad = 2.086985e-06 ; sigma = 3.517933e-09
Cycle 4: max grad = 9.633100e-07 ; sigma = 1.625011e-11
Product_state fixed-point CI iteration converged after 4 cycles
Entering product-state fixed-point CI iteration
Cycle 0: max grad = 2.547984e-01 ; sigma = 0.000000e+00
Cycle 1: max grad = 4.940955e-04 ; sigma = 1.356991e-01
Cycle 2: max grad = 1.797459e-05 ; sigma = 1.190747e-05
Cycle 3: max grad = 3.422013e-06 ; sigma = 2.061078e-09
Cycle 4: max grad = 1.734463e-06 ; sigma = 4.411049e-11
Product_state fixed-point CI iteration converged after 4 cycles
Entering product-state fixed-point CI iteration
Cycle 0: max grad = 2.772798e-01 ; sigma = 0.000000e+00
Cycle 1: max grad = 1.746798e-04 ; sigma = 8.679662e-02
Cycle 2: max grad = 3.605284e-06 ; sigma = 4.704854e-07
Cycle 3: max grad = 6.195350e-09 ; sigma = 1.303846e-11
Product_state fixed-point CI iteration converged after 3 cycles
Entering product-state fixed-point CI iteration
Cycle 0: max grad = 3.072477e-01 ; sigma = 0.000000e+00
Cycle 1: max grad = 7.025506e-04 ; sigma = 1.722110e-01
Cycle 2: max grad = 2.006304e-06 ; sigma = 3.611431e-06
Cycle 3: max grad = 1.544484e-06 ; sigma = 1.936939e-11
Product_state fixed-point CI iteration converged after 3 cycles
Entering product-state fixed-point CI iteration
Cycle 0: max grad = 2.330947e-01 ; sigma = 0.000000e+00
Cycle 1: max grad = 9.022355e-04 ; sigma = 1.018512e-01
Cycle 2: max grad = 4.720383e-06 ; sigma = 5.149729e-06
Cycle 3: max grad = 5.697372e-07 ; sigma = 1.212186e-11
Product_state fixed-point CI iteration converged after 3 cycles
Entering product-state fixed-point CI iteration
Cycle 0: max grad = 3.079542e-01 ; sigma = 0.000000e+00
Cycle 1: max grad = 7.387247e-04 ; sigma = 1.724413e-01
Cycle 2: max grad = 1.826270e-06 ; sigma = 3.676750e-06
Cycle 3: max grad = 1.182346e-06 ; sigma = 1.298162e-11
Product_state fixed-point CI iteration converged after 3 cycles
Entering product-state fixed-point CI iteration
Cycle 0: max grad = 2.335124e-01 ; sigma = 0.000000e+00
Cycle 1: max grad = 1.138699e-03 ; sigma = 1.071161e-01
Cycle 2: max grad = 3.883442e-06 ; sigma = 5.254380e-06
Cycle 3: max grad = 8.258706e-07 ; sigma = 4.995115e-12
Product_state fixed-point CI iteration converged after 3 cycles
Entering product-state fixed-point CI iteration
Cycle 0: max grad = 2.338069e-01 ; sigma = 0.000000e+00
Cycle 1: max grad = 1.191414e-03 ; sigma = 1.820431e-02
Cycle 2: max grad = 6.986751e-05 ; sigma = 7.928501e-05
Cycle 3: max grad = 4.029053e-07 ; sigma = 2.432043e-08
Cycle 4: max grad = 1.245300e-07 ; sigma = 7.240430e-12
Product_state fixed-point CI iteration converged after 4 cycles
Entering product-state fixed-point CI iteration
Cycle 0: max grad = 3.084336e-01 ; sigma = 0.000000e+00
Cycle 1: max grad = 5.796043e-04 ; sigma = 1.355038e-01
Cycle 2: max grad = 6.202365e-06 ; sigma = 5.082764e-06
Cycle 3: max grad = 1.484346e-06 ; sigma = 1.662031e-09
Cycle 4: max grad = 1.428826e-06 ; sigma = 2.169998e-11
Product_state fixed-point CI iteration converged after 4 cycles
Entering product-state fixed-point CI iteration
Cycle 0: max grad = 2.547555e-01 ; sigma = 0.000000e+00
Cycle 1: max grad = 4.869082e-04 ; sigma = 1.360161e-01
Cycle 2: max grad = 1.787864e-05 ; sigma = 1.181236e-05
Cycle 3: max grad = 1.658856e-06 ; sigma = 1.786951e-09
Cycle 4: max grad = 1.023184e-06 ; sigma = 2.977174e-11
Product_state fixed-point CI iteration converged after 4 cycles
Entering product-state fixed-point CI iteration
Cycle 0: max grad = 3.079359e-01 ; sigma = 0.000000e+00
Cycle 1: max grad = 2.866235e-04 ; sigma = 1.196785e-01
Cycle 2: max grad = 1.683091e-06 ; sigma = 4.284819e-07
Cycle 3: max grad = 9.098537e-07 ; sigma = 6.821210e-12
Product_state fixed-point CI iteration converged after 3 cycles
Entering product-state fixed-point CI iteration
Cycle 0: max grad = 2.773181e-01 ; sigma = 0.000000e+00
Cycle 1: max grad = 1.709168e-04 ; sigma = 8.679343e-02
Cycle 2: max grad = 3.788526e-06 ; sigma = 5.441830e-07
Cycle 3: max grad = 6.008534e-09 ; sigma = 1.498535e-11
Product_state fixed-point CI iteration converged after 3 cycles
Entering product-state fixed-point CI iteration
Cycle 0: max grad = 3.079833e-01 ; sigma = 0.000000e+00
Cycle 1: max grad = 5.807187e-04 ; sigma = 1.323307e-01
Cycle 2: max grad = 5.475820e-06 ; sigma = 5.386427e-06
Cycle 3: max grad = 1.468913e-04 ; sigma = 4.198828e-05
Cycle 4: max grad = 8.586861e-05 ; sigma = 8.594261e-05
Cycle 5: max grad = 1.926563e-06 ; sigma = 1.994863e-07
Cycle 6: max grad = 1.506086e-06 ; sigma = 4.997958e-11
Product_state fixed-point CI iteration converged after 6 cycles
Entering product-state fixed-point CI iteration
Cycle 0: max grad = 2.512839e-01 ; sigma = 0.000000e+00
Cycle 1: max grad = 3.935694e-04 ; sigma = 1.324123e-01
Cycle 2: max grad = 4.087708e-06 ; sigma = 8.824905e-07
Cycle 3: max grad = 2.407877e-06 ; sigma = 4.475709e-11
Product_state fixed-point CI iteration converged after 3 cycles
Entering product-state fixed-point CI iteration
Cycle 0: max grad = 3.079341e-01 ; sigma = 0.000000e+00
Cycle 1: max grad = 4.028879e-04 ; sigma = 1.197535e-01
Cycle 2: max grad = 1.954101e-04 ; sigma = 1.591532e-04
[...]
 153  -4991.6350922458  16.000       8       8      16       A
 154  -4989.4858020770  22.000       8       8      16       A
 155  -4991.4529344773  18.000       8       8      16       A
 156  -4990.0126205773  23.000       8       8      16       A
 157  -4991.4599783051  18.000       8       8      16       A
 158  -4990.0173876076  23.000       8       8      16       A
 159  -4991.6566489113  16.000       8       8      16       A
 160  -4989.4961536663  22.000       8       8      16       A
 161  -4991.9890072816  18.000       8       8      16       A
 162  -4989.8285615325  24.000       8       8      16       A
 163  -4992.1174689099  23.000       8       8      16       A
 164  -4989.9570518063  29.000       8       8      16       A
 165  -4991.9688657676  18.000       8       8      16       A
 166  -4989.8193160879  24.000       8       8      16       A
 167  -4992.0963016948  23.000       8       8      16       A
 168  -4989.9466967956  29.000       8       8      16       A
 169  -4991.6351366001  16.000       8       8      16       A
 170  -4989.4858538496  22.000       8       8      16       A
 171  -4991.4529209466  17.000       8       8      16       A
 172  -4990.0126592994  22.000       8       8      16       A
 173  -4991.4598447987  15.000       8       8      16       A
 174  -4990.0171772944  20.000       8       8      16       A
 175  -4991.6564481455  12.000       8       8      16       A
 176  -4989.4959525565  18.000       8       8      16       A
 177  -4991.9889446354  17.000       8       8      16       A
 178  -4989.8284998189  23.000       8       8      16       A
 179  -4992.1174024267  22.000       8       8      16       A
 180  -4989.9569863834  28.000       8       8      16       A
 181  -4991.9686743601  15.000       8       8      16       A
 182  -4989.8190899976  21.000       8       8      16       A
 183  -4992.0961076643  20.000       8       8      16       A
 184  -4989.9464654310  26.000       8       8      16       A
 185  -4991.6350447069  12.000       8       8      16       A
 186  -4989.4857514815  18.000       8       8      16       A
 187  -4989.8274525182  11.000       8       8      16       A
 188  -4989.9560480901  16.000       8       8      16       A
 189  -4991.4527609901  12.000       8       8      16       A
 190  -4990.0125515494  17.000       8       8      16       A
 191  -4991.4595617216   8.000       8       8      16       A
 192  -4990.0168174615  13.000       8       8      16       A
 193  -4989.4956019031  10.000       8       8      16       A
 194  -4991.9886117580  12.000       8       8      16       A
 195  -4989.8281645666  18.000       8       8      16       A
 196  -4992.1170658621  17.000       8       8      16       A
 197  -4989.9566471303  23.000       8       8      16       A
 198  -4991.9682054327   8.000       8       8      16       A
 199  -4989.8185694714  14.000       8       8      16       A
 200  -4992.0956361007  13.000       8       8      16       A
 201  -4989.9459396065  19.000       8       8      16       A
 202  -4991.4527609901  12.000       8       8      16       A
 203  -4990.0125515494  17.000       8       8      16       A
 204  -4991.4598447987  15.000       8       8      16       A
 205  -4990.0171772944  20.000       8       8      16       A
 206  -4991.6566505095  16.000       8       8      16       A
 207  -4989.4961684527  22.000       8       8      16       A
 208  -4991.9886117580  12.000       8       8      16       A
 209  -4989.8281645666  18.000       8       8      16       A
 210  -4992.1170658621  17.000       8       8      16       A
 211  -4989.9566471303  23.000       8       8      16       A
 212  -4991.9686743601  15.000       8       8      16       A
 213  -4989.8190899976  21.000       8       8      16       A
 214  -4992.0961076643  20.000       8       8      16       A
 215  -4989.9464654310  26.000       8       8      16       A
 216  -4991.6351145048  16.000       8       8      16       A
 217  -4989.4858227470  22.000       8       8      16       A
 218  -4991.4529209466  17.000       8       8      16       A
 219  -4990.0126592994  22.000       8       8      16       A
 220  -4991.4599783051  18.000       8       8      16       A
 221  -4990.0173876076  23.000       8       8      16       A
 222  -4991.6567299983  18.000       8       8      16       A
 223  -4989.4962436572  24.000       8       8      16       A
 224  -4991.9889446354  17.000       8       8      16       A
 225  -4989.8284998189  23.000       8       8      16       A
 226  -4992.1174024267  22.000       8       8      16       A
 227  -4989.9569863834  28.000       8       8      16       A
 228  -4991.9688657676  18.000       8       8      16       A
 229  -4989.8193160879  24.000       8       8      16       A
 230  -4992.0963016948  23.000       8       8      16       A
 231  -4989.9466967956  29.000       8       8      16       A
 232  -4991.6351826264  18.000       8       8      16       A
 233  -4989.4858998158  24.000       8       8      16       A
 234  -4991.4529344773  18.000       8       8      16       A
 235  -4990.0126205773  23.000       8       8      16       A
 236  -4991.4599621312  17.000       8       8      16       A
 237  -4990.0174483005  22.000       8       8      16       A
 238  -4991.6566505095  16.000       8       8      16       A
 239  -4989.4961684527  22.000       8       8      16       A
 240  -4991.9890072816  18.000       8       8      16       A
 241  -4989.8285615325  24.000       8       8      16       A
 242  -4992.1174689099  23.000       8       8      16       A
 243  -4989.9570518063  29.000       8       8      16       A
 244  -4991.9687796321  17.000       8       8      16       A
 245  -4989.8192477230  23.000       8       8      16       A
 246  -4992.0962181690  22.000       8       8      16       A
 247  -4989.9466336810  28.000       8       8      16       A
 248  -4991.6351145048  16.000       8       8      16       A
 249  -4989.4858227470  22.000       8       8      16       A
 250  -4991.4528015854  15.000       8       8      16       A
 251  -4990.0124354679  20.000       8       8      16       A
 252  -4991.4597962882  12.000       8       8      16       A
 253  -4990.0173593926  17.000       8       8      16       A
 254  -4991.6564122219  10.000       8       8      16       A
 255  -4989.4959430081  16.000       8       8      16       A
 256  -4991.9888000520  15.000       8       8      16       A
 257  -4989.8283491877  21.000       8       8      16       A
 258  -4992.1172655514  20.000       8       8      16       A
 259  -4989.9568429753  26.000       8       8      16       A
 260  -4991.9684159631  12.000       8       8      16       A
 261  -4989.8188849082  18.000       8       8      16       A
 262  -4992.0958570954  17.000       8       8      16       A
 263  -4989.9462760925  23.000       8       8      16       A
 264  -4991.6349101872  10.000       8       8      16       A
 265  -4989.4855915828  16.000       8       8      16       A
 266  -4989.8275574087   9.000       8       8      16       A
 267  -4989.9560355569  14.000       8       8      16       A
 268  -4991.4525223617   8.000       8       8      16       A
 269  -4990.0121041438  13.000       8       8      16       A
 270  -4991.9883243597   8.000       8       8      16       A
 271  -4989.8278633547  14.000       8       8      16       A
 272  -4992.1167936506  13.000       8       8      16       A
 273  -4989.9563605314  19.000       8       8      16       A
 274  -4989.8182276744   9.000       8       8      16       A
 275  -4989.9456240604  14.000       8       8      16       A
 276  -4991.4595475991   9.000       8       8      16       A
 277  -4990.0163666193  14.000       8       8      16       A
 278  -4991.6564481455  12.000       8       8      16       A
 279  -4989.4959525565  18.000       8       8      16       A
 280  -4989.8274525182  11.000       8       8      16       A
 281  -4989.9560480901  16.000       8       8      16       A
 282  -4991.9680894339   9.000       8       8      16       A
 283  -4989.8184599292  15.000       8       8      16       A
 284  -4992.0955634594  14.000       8       8      16       A
 285  -4989.9458634863  20.000       8       8      16       A
 286  -4991.6350447069  12.000       8       8      16       A
 287  -4989.4857514815  18.000       8       8      16       A
 288  -4989.4956019031  10.000       8       8      16       A
 289  -4991.4528019158  12.000       8       8      16       A
 290  -4990.0124593261  17.000       8       8      16       A
 291  -4991.4597981121  14.000       8       8      16       A
 292  -4990.0168477611  19.000       8       8      16       A
 293  -4991.6566489113  16.000       8       8      16       A
 294  -4989.4961536663  22.000       8       8      16       A
 295  -4991.9883566257  12.000       8       8      16       A
 296  -4989.8279094641  18.000       8       8      16       A
 297  -4992.1169273008  17.000       8       8      16       A
 298  -4989.9565168137  23.000       8       8      16       A
 299  -4991.9683875223  14.000       8       8      16       A
 300  -4989.8188421040  20.000       8       8      16       A
 301  -4992.0958679889  19.000       8       8      16       A
 302  -4989.9462630881  25.000       8       8      16       A
 303  -4991.6351366001  16.000       8       8      16       A
 304  -4989.4858538496  22.000       8       8      16       A
 305  -4991.4528425132  15.000       8       8      16       A
 306  -4990.0123425863  20.000       8       8      16       A
 307  -4991.4598991611  15.000       8       8      16       A
 308  -4990.0171794076  20.000       8       8      16       A
 309  -4991.6566909774  16.000       8       8      16       A
 310  -4989.4962046605  22.000       8       8      16       A
 311  -4991.9885395511  15.000       8       8      16       A
 312  -4989.8280944691  21.000       8       8      16       A
 313  -4992.1171238468  20.000       8       8      16       A
 314  -4989.9567128185  26.000       8       8      16       A
 315  -4991.9684082492  15.000       8       8      16       A
 316  -4989.8189300353  21.000       8       8      16       A
 317  -4992.0958949704  20.000       8       8      16       A
 318  -4989.9463682275  26.000       8       8      16       A
 319  -4991.6350922458  16.000       8       8      16       A
 320  -4989.4858020770  22.000       8       8      16       A
 321  -4991.4527366855  14.000       8       8      16       A
 322  -4990.0120797820  19.000       8       8      16       A
 323  -4991.4598506607  12.000       8       8      16       A
 324  -4990.0173614960  17.000       8       8      16       A
 325  -4991.6565742753  12.000       8       8      16       A
 326  -4989.4961053142  18.000       8       8      16       A
 327  -4991.9884551888  14.000       8       8      16       A
 328  -4989.8280059512  20.000       8       8      16       A
 329  -4992.1170519249  19.000       8       8      16       A
 330  -4989.9566348175  25.000       8       8      16       A
 331  -4991.9681516106  12.000       8       8      16       A
 332  -4989.8187237161  18.000       8       8      16       A
 333  -4992.0956443979  17.000       8       8      16       A
 334  -4989.9461788961  23.000       8       8      16       A
 335  -4991.6349116975  12.000       8       8      16       A
 336  -4989.4855962111  18.000       8       8      16       A
 337  -4991.4524845301   9.000       8       8      16       A
 338  -4990.0116712602  14.000       8       8      16       A
 339  -4991.9881054344   9.000       8       8      16       A
 340  -4989.8276434412  15.000       8       8      16       A
 341  -4992.1167132120  14.000       8       8      16       A
 342  -4989.9562826041  20.000       8       8      16       A
 343  -4989.8182231657  11.000       8       8      16       A
 344  -4989.9456951107  16.000       8       8      16       A
 345  -4989.4852363823  10.000       8       8      16       A
 346  -4990.0157686905  11.000       8       8      16       A
 347  -4991.6564067983  10.000       8       8      16       A
 348  -4989.4958843198  16.000       8       8      16       A
 349  -4989.9556438119  14.000       8       8      16       A
 350  -4992.0950006141  11.000       8       8      16       A
 351  -4989.9453957101  17.000       8       8      16       A
 352  -4991.6349986315  10.000       8       8      16       A
 353  -4989.4857160607  16.000       8       8      16       A
 354  -4989.4955584663  10.000       8       8      16       A
 355  -4990.0118277398  13.000       8       8      16       A
 356  -4990.0163709999  14.000       8       8      16       A
 357  -4991.6565694678  12.000       8       8      16       A
 358  -4989.4960609419  18.000       8       8      16       A
 359  -4992.1163781055  13.000       8       8      16       A
 360  -4989.9559695962  19.000       8       8      16       A
 361  -4992.0951381024  14.000       8       8      16       A
 362  -4989.9456690989  20.000       8       8      16       A
 363  -4991.6349780376  12.000       8       8      16       A
 364  -4989.4856895623  18.000       8       8      16       A
 365  -4990.0114857755  14.000       8       8      16       A
 366  -4990.0168239224  13.000       8       8      16       A
 367  -4991.6565739482  10.000       8       8      16       A
 368  -4989.4960877039  16.000       8       8      16       A
 369  -4992.1164298538  14.000       8       8      16       A
 370  -4989.9560223050  20.000       8       8      16       A
 371  -4992.0949980389  13.000       8       8      16       A
 372  -4989.9456480367  19.000       8       8      16       A
 373  -4991.6348212418  10.000       8       8      16       A
 374  -4989.4855089659  16.000       8       8      16       A
 375  -4990.0109988153  11.000       8       8      16       A
 376  -4992.1162179894  11.000       8       8      16       A
 377  -4989.9558008743  17.000       8       8      16       A
 378  -4989.9453325271  14.000       8       8      16       A
 379  -4989.4851744076  10.000       8       8      16       A
Build + diag H matrix LASSI symmetry block 0
['neleca', 'nelecb', 'irrep'] = (8, 8, 0)
(380 rootspaces; 22808 states)
LASSI eigenvalues (22808 total):
 ix            Energy  <S**2>  Neleca  Nelecb  Wfnsym
  0  -4992.3685912162   6.000       8       8       A
  1  -4992.3684527835   2.001       8       8       A
  2  -4992.3683631519  11.997       8       8       A
  3  -4992.3683332469   5.998       8       8       A
  4  -4992.3682460661   0.007       8       8       A
  5  -4992.3682046689   2.004       8       8       A
  6  -4992.3681339500   6.000       8       8       A
  7  -4992.3680781813  12.000       8       8       A
  8  -4992.3680310471  19.995       8       8       A
  9  -4992.3679067388   2.001       8       8       A
 10  -4992.3678482013   6.001       8       8       A
 11  -4992.3677699889  11.999       8       8       A
 12  -4992.3676795623  20.000       8       8       A
 13  -4992.3675799825  29.998       8       8       A
 14  -4992.3674482522   6.001       8       8       A
 15  -4992.3673674642  12.001       8       8       A
 16  -4992.3672650777  19.999       8       8       A
 17  -4992.3671427694  30.000       8       8       A
 18  -4992.3670014202  42.000       8       8       A
 19  -4992.3668615302  12.000       8       8       A
 20  -4992.3667554176  20.000       8       8       A
 21  -4992.3666240106  30.000       8       8       A
 22  -4992.3664686796  42.000       8       8       A
 23  -4992.3662895542  56.000       8       8       A
 24  -4992.1270996757  56.000       8       8       A
 25  -4992.1262456599  42.000       8       8       A
 26  -4992.1254962040  30.000       8       8       A
 27  -4992.1248582097  20.000       8       8       A
 28  -4992.1243388677  12.000       8       8       A
 29  -4992.1239447479   6.000       8       8       A
 30  -4992.1237009802  42.000       8       8       A
 31  -4992.1234794172  56.000       8       8       A
 32  -4992.1230913288  30.000       8       8       A
 33  -4992.1225489670  20.000       8       8       A
 34  -4992.1224892669  42.000       8       8       A
 35  -4992.1220860336  12.000       8       8       A
 36  -4992.1217194978   6.000       8       8       A
 37  -4992.1216073935  30.000       8       8       A
 38  -4992.1214665570   2.000       8       8       A
 39  -4992.1209972569  42.000       8       8       A
 40  -4992.1209364843  30.000       8       8       A
 41  -4992.1208419904  20.000       8       8       A
 42  -4992.1206038148  20.000       8       8       A
 43  -4992.1202798799  12.000       8       8       A
 44  -4992.1202671235  30.000       8       8       A
 45  -4992.1202058905  12.000       8       8       A
 46  -4992.1199702408   6.000       8       8       A
 47  -4992.1197145166   6.000       8       8       A
 48  -4992.1197136914   2.000       8       8       A
 49  -4992.1196125652  20.000       8       8       A
 50  -4992.1195771651   0.000       8       8       A
 51  -4992.1190354121  12.000       8       8       A
 52  -4992.1188931153  56.000       8       8       A
 53  -4992.1188330598  12.000       8       8       A
 54  -4992.1188316373  20.000       8       8       A
 55  -4992.1187981655  30.000       8       8       A
 56  -4992.1187878151   6.000       8       8       A
 57  -4992.1185537239   6.000       8       8       A
 58  -4992.1184094762   2.000       8       8       A
 59  -4992.1183783083  20.000       8       8       A
 60  -4992.1182447840  42.000       8       8       A
 61  -4992.1182071953   2.000       8       8       A
 62  -4992.1179969301  12.000       8       8       A
 63  -4992.1177576793   6.000       8       8       A
 64  -4992.1176824180  30.000       8       8       A
 65  -4992.1176213647   6.000       8       8       A
 66  -4992.1173275802  12.000       8       8       A
 67  -4992.1172089129  20.000       8       8       A
 68  -4992.1172058853   2.000       8       8       A
 69  -4992.1169910944   0.000       8       8       A
 70  -4992.1169172482  20.000       8       8       A
 71  -4992.1168782868  12.000       8       8       A
 72  -4992.1168692967   6.000       8       8       A
 73  -4992.1168270454  12.000       8       8       A
 74  -4992.1165392862   6.000       8       8       A
 75  -4992.1162791986   2.000       8       8       A
 76  -4992.1157933365   6.000       8       8       A
 77  -4992.1156575809  42.000       8       8       A
 78  -4992.1153849210  12.000       8       8       A
 79  -4992.1150480193  30.000       8       8       A
 80  -4992.1148410071  56.000       8       8       A
 81  -4992.1145213780  20.000       8       8       A
 82  -4992.1140917046  12.000       8       8       A
 83  -4992.1139434306  42.000       8       8       A
 84  -4992.1137669126   6.000       8       8       A
 85  -4992.1135502837   2.000       8       8       A
 86  -4992.1133645868  30.000       8       8       A
 87  -4992.1130182660  42.000       8       8       A
 88  -4992.1129409723  30.000       8       8       A
 89  -4992.1129160510  20.000       8       8       A
 90  -4992.1124695312  12.000       8       8       A
 91  -4992.1122641627  20.000       8       8       A
 92  -4992.1120239740   6.000       8       8       A
 93  -4992.1120112180  30.000       8       8       A
 94  -4992.1116896649  12.000       8       8       A
 95  -4992.1115128393  20.000       8       8       A
 96  -4992.1114847426   2.000       8       8       A
 97  -4992.1114624889   6.000       8       8       A
 98  -4992.1114443398  12.000       8       8       A
 99  -4992.1113091087  20.000       8       8       A
Remaining 22708 eigenvalues truncated; increase verbosity to print them all
