#INFO: **** input file is /project/lgagliardi/valayagarawal/lasscf/mof_nodes/Fe_Fe_Fe/production/15_16/lassi.py ****
import numpy as np
import sys
from pyscf import gto, scf, tools,lib, mcscf
from pyscf.mcscf import avas,project_init_guess
from pyscf import mcscf
from mrh.my_pyscf.tools import molden
from mrh.my_pyscf.mcscf import lasscf_async as asyn
mol_name='Fe_Fe_Fe.xyz' # Al-Fe-Fe MOF node
basis={'C': 'cc-pvdz','H': 'cc-pvdz','O': 'cc-pvtz','Al': 'cc-pvtz','Fe': 'cc-pvtz'}
output='lassi_1_5_new.log'
mol=gto.M(atom=mol_name,verbose=4,spin=14,charge=0,basis=basis, output=output) #spin = 2S
mf=scf.RHF(mol)
#mf.init_guess='atom'
mf=mf.density_fit()
mf.max_cycle=1
mf.kernel()
#mf=mf.newton()
#mf.max_cycle=1
#mf.kernel()
mf.mo_coeff=np.load('hf.npy')
#ncas,nelecas,guess_mo_coeff=avas.kernel(mf,['Fe 3d', 'Fe 4d'],minao=mol.basis, openshell_option=3)
#mc_test = mcscf.CASCI (mf, ncas, nelecas)
#final_list=[8,9,10,11,12,13,14,15,16,17,18,19,20,21,22,23,24,25,26,27,28,29,30,31,32,33,34,35,36,37]+mc_test.ncore
mo_converged=np.load('las_15_16.npy')
las=asyn.LASSCF(mf,(5,5,5),((3,3),(0,5),(5,0)),spin_sub=(5,6,6),verbose=4) 
las.set_fragments_(([17],[19],[22]),mo_converged)
las.mo_coeff=mo_converged

from mrh.my_pyscf.lassi import states
from mrh.my_pyscf.mcscf.lasci import get_space_info
las=states.spin_shuffle(las)
las=states.all_single_excitations(las)
ncsf=las.get_ugg().ncsf_sub
charges, spins, smults, wfnsyms = get_space_info (las)
np.save('spins',spins)
np.save('smults',smults)
np.save('charges',charges)
lroots=np.minimum(5,ncsf)
las.lasci()
las.lasci(lroots=lroots)
eroots,si=las.lassi()
from mrh.my_pyscf.lassi.sitools import analyze
ci1, si1, space_weights, navg, maxw, entr = analyze(las,si, state=[2,1,0,6,12,17,21,23],return_metrics=True)
#np.save('r1_n5_ct/ci1',ci1)
#np.save('r1_n5_ct/si1',si1)
#np.save('r1_n5_ct/space_weights',space_weights)
np.save('navg',navg)
#np.save('r1_n5_ct/maxw',maxw)
#np.save('r1_n5_ct/entr',entr)
#INFO: ******************** input file end ********************


System: uname_result(system='Linux', node='midway3-0557.rcc.local', release='4.18.0-305.3.1.el8.x86_64', version='#1 SMP Tue Jun 1 16:14:33 UTC 2021', machine='x86_64')  Threads 32
Python 3.9.12 (main, Apr  5 2022, 06:56:58) 
[GCC 7.5.0]
numpy 1.25.0  scipy 1.7.3
Date: Fri Mar  1 11:01:41 2024
PySCF version 2.5.0
PySCF path  /project/lgagliardi/shared/Apps/pyscf
GIT ORIG_HEAD 0bc590ffddec98eec5d2513a3d85274b7a791bc6
GIT HEAD (branch master) 6f8ce439fbe0c26ec4d226e2225b28c7f668f922

[ENV] PYSCF_MAX_MEMORY 256000
[CONFIG] conf_file /home/valayagarawal/.pyscf_conf.py
[INPUT] verbose = 4
[INPUT] num. atoms = 28
[INPUT] num. electrons = 224
[INPUT] charge = 0
[INPUT] spin (= nelec alpha-beta = 2S) = 14
[INPUT] symmetry False subgroup None
[INPUT] Mole.unit = angstrom
[INPUT] Symbol           X                Y                Z      unit          X                Y                Z       unit  Magmom
[INPUT]  1 O     -1.396530535900  -2.155053668200   1.497463409200 AA   -2.639060237443  -4.072461216637   2.829795724946 Bohr   0.0
[INPUT]  2 O     -1.424929947800  -0.157920218100   2.556757216000 AA   -2.692727348033  -0.298425961741   4.831570905245 Bohr   0.0
[INPUT]  3 C     -1.805663158200  -1.333357732900   2.354770590800 AA   -3.412208842215  -2.519680941252   4.449871502792 Bohr   0.0
[INPUT]  4 H     -2.611139823600  -1.698287376800   3.015172571600 AA   -4.934339139549  -3.209298022958   5.697850378625 Bohr   0.0
[INPUT]  5 O      1.422169433100  -0.172776606600  -2.448307975000 AA    2.687510731287  -0.326500467206  -4.626631541338 Bohr   0.0
[INPUT]  6 O      1.404243291500  -2.165442677100  -1.387375375500 AA    2.653635233193  -4.092093598164  -2.621759491661 Bohr   0.0
[INPUT]  7 C      1.812327532700  -1.345288486000  -2.246529163600 AA    3.424802684812  -2.542226797071  -4.245324850052 Bohr   0.0
[INPUT]  8 H      2.621336913500  -1.706173551000  -2.904090707500 AA    4.953608846728  -3.224200732367  -5.487936078069 Bohr   0.0
[INPUT]  9 O     -1.428899418000   2.343625706100   1.186473538000 AA   -2.700228559570   4.428810723019   2.242110040864 Bohr   0.0
[INPUT] 10 O     -1.403562858100  -2.165307124600  -1.387572278000 AA   -2.652349400421  -4.091837441063  -2.622131583459 Bohr   0.0
[INPUT] 11 O     -1.422998602300  -0.172362922600  -2.447964967100 AA   -2.689077633986  -0.325718717744  -4.625983350349 Bohr   0.0
[INPUT] 12 C     -1.812500488200  -1.345105901400  -2.246279413800 AA   -3.425129523338  -2.541881762182  -4.244852891331 Bohr   0.0
[INPUT] 13 H     -2.621699381200  -1.706195274400  -2.903496623700 AA   -4.954293811410  -3.224241783643  -5.486813422392 Bohr   0.0
[INPUT] 14 O      1.425112370600  -0.157194806200   2.556693752400 AA    2.693072077164  -0.297055131922   4.831450976423 Bohr   0.0
[INPUT] 15 O      1.397382094800  -2.154305542500   1.497360668900 AA    2.640669450543  -4.071047463958   2.829601573917 Bohr   0.0
[INPUT] 16 C      1.806221903800  -1.332524996000   2.354699920000 AA    3.413264718373  -2.518107296577   4.449737954335 Bohr   0.0
[INPUT] 17 H      2.611813123200  -1.697184247500   3.015110605000 AA    4.935611491393  -3.207213410701   5.697733278722 Bohr   0.0
[INPUT] 18 Fe    -0.000142986400   0.971642646100   1.624782043000 AA   -0.000270205136   1.836138492077   3.070393073381 Bohr   0.0
[INPUT] 19 O      1.428198548600   2.344050002400   1.186026051100 AA    2.698904108355   4.429612526822   2.241264413178 Bohr   0.0
[INPUT] 20 Fe    -0.000136422400   0.952927878000  -1.522872888500 AA   -0.000257800973   1.800772705883  -2.877812681790 Bohr   0.0
[INPUT] 21 O      1.423595106900   2.330128124700  -1.070103353900 AA    2.690204864312   4.403303990829  -2.022202263850 Bohr   0.0
[INPUT] 22 O     -1.423503945100   2.330456754100  -1.069656997800 AA   -2.690032593477   4.403925010392  -2.021358773066 Bohr   0.0
[INPUT] 23 Fe     0.000254998800  -1.941619777000   0.045888528400 AA    0.000481877894  -3.669129616569   0.086716750935 Bohr   0.0
[INPUT] 24 O     -0.000152138200  -0.071914987500   0.072147896200 AA   -0.000287499531  -0.135899630627   0.136339764282 Bohr   0.0
[INPUT] 25 C      1.815220274200   2.721515147600   0.054422244100 AA    3.430269173996   5.142918272819   0.102843136433 Bohr   0.0
[INPUT] 26 H      2.604057214900   3.492625268800   0.048831474800 AA    4.920954948859   6.600105213767   0.092278113631 Bohr   0.0
[INPUT] 27 C     -1.815568952400   2.721425035400   0.054846494400 AA   -3.430928080300   5.142747985441   0.103644853308 Bohr   0.0
[INPUT] 28 H     -2.604489027400   3.492449071900   0.049250759800 AA   -4.921770956221   6.599772249882   0.093070447449 Bohr   0.0

nuclear repulsion = 3848.37097509846
number of shells = 192
number of NR pGTOs = 1137
number of NR cGTOs = 708
basis = {'C': 'cc-pvdz', 'H': 'cc-pvdz', 'O': 'cc-pvtz', 'Al': 'cc-pvtz', 'Fe': 'cc-pvtz'}
ecp = {}
CPU time:         1.83


******** <class 'pyscf.df.df_jk.DFROHF'> ********
method = DFROHF
initial guess = minao
damping factor = 0
level_shift factor = 0
DIIS = <class 'pyscf.scf.diis.CDIIS'>
diis_start_cycle = 1
diis_space = 8
diis_damp = 0
SCF conv_tol = 1e-09
SCF conv_tol_grad = None
SCF max_cycles = 1
direct_scf = False
chkfile to save SCF result = /scratch/local/jobs/18138313/tmpuygqor3t
max_memory 256000 MB (current use 78 MB)
num. doubly occ = 105  num. singly occ = 14
Set gradient conv threshold to 3.16228e-05
******** <class 'pyscf.df.df.DF'> ********
auxbasis = None
max_memory = 256000
Even tempered Gaussians are generated as DF auxbasis for  O Fe H C
init E= -4989.57211323767
  HOMO = 0.143847996495828  LUMO = 0.151053031442124
cycle= 1 E= -4950.11181863297  delta_E= 39.5  |g|=   11  |ddm|= 94.9
SCF not converged.
SCF energy = -4950.11181863297
Built 23 spin(local Sz)-shuffled LAS states from 1 reference LAS states
Built 158 singly-excited LAS states from 24 reference LAS states
Entering product-state fixed-point CI iteration
Cycle 0: max grad = 2.511558e-03 ; sigma = 0.000000e+00
Cycle 1: max grad = 4.641246e-14 ; sigma = 2.504521e-08
Cycle 2: max grad = 4.641246e-14 ; sigma = 0.000000e+00
Product_state fixed-point CI iteration converged after 2 cycles
Entering product-state fixed-point CI iteration
Cycle 0: max grad = 2.512680e-03 ; sigma = 0.000000e+00
Cycle 1: max grad = 1.966069e-15 ; sigma = 2.506874e-08
Cycle 2: max grad = 1.966069e-15 ; sigma = 2.273737e-13
Product_state fixed-point CI iteration converged after 2 cycles
Entering product-state fixed-point CI iteration
Cycle 0: max grad = 2.510055e-03 ; sigma = 0.000000e+00
Cycle 1: max grad = 1.136868e-13 ; sigma = 2.501542e-08
Cycle 2: max grad = 1.136868e-13 ; sigma = 2.273737e-13
Product_state fixed-point CI iteration converged after 2 cycles
Entering product-state fixed-point CI iteration
Cycle 0: max grad = 2.507429e-03 ; sigma = 0.000000e+00
Cycle 1: max grad = 1.191616e-15 ; sigma = 2.496313e-08
Cycle 2: max grad = 1.191616e-15 ; sigma = 0.000000e+00
Product_state fixed-point CI iteration converged after 2 cycles
Entering product-state fixed-point CI iteration
Cycle 0: max grad = 2.504804e-03 ; sigma = 0.000000e+00
Cycle 1: max grad = 1.136868e-13 ; sigma = 2.491095e-08
Cycle 2: max grad = 1.136868e-13 ; sigma = 1.136868e-13
Product_state fixed-point CI iteration converged after 2 cycles
Entering product-state fixed-point CI iteration
Cycle 0: max grad = 2.513479e-03 ; sigma = 0.000000e+00
Cycle 1: max grad = 2.842171e-14 ; sigma = 2.508409e-08
Cycle 2: max grad = 2.842171e-14 ; sigma = 1.136868e-13
Product_state fixed-point CI iteration converged after 2 cycles
Entering product-state fixed-point CI iteration
Cycle 0: max grad = 2.512166e-03 ; sigma = 0.000000e+00
Cycle 1: max grad = 8.526513e-14 ; sigma = 2.505760e-08
Cycle 2: max grad = 8.526513e-14 ; sigma = 2.273737e-13
Product_state fixed-point CI iteration converged after 2 cycles
Entering product-state fixed-point CI iteration
Cycle 0: max grad = 2.510854e-03 ; sigma = 0.000000e+00
Cycle 1: max grad = 2.842171e-14 ; sigma = 2.503123e-08
Cycle 2: max grad = 2.842171e-14 ; sigma = 0.000000e+00
Product_state fixed-point CI iteration converged after 2 cycles
Entering product-state fixed-point CI iteration
Cycle 0: max grad = 2.509541e-03 ; sigma = 0.000000e+00
Cycle 1: max grad = 1.705303e-13 ; sigma = 2.500519e-08
Cycle 2: max grad = 1.705303e-13 ; sigma = 2.273737e-13
Product_state fixed-point CI iteration converged after 2 cycles
Entering product-state fixed-point CI iteration
Cycle 0: max grad = 2.508228e-03 ; sigma = 0.000000e+00
Cycle 1: max grad = 1.136868e-13 ; sigma = 2.497882e-08
Cycle 2: max grad = 1.136868e-13 ; sigma = 1.136868e-13
Product_state fixed-point CI iteration converged after 2 cycles
Entering product-state fixed-point CI iteration
Cycle 0: max grad = 2.511558e-03 ; sigma = 0.000000e+00
Cycle 1: max grad = 4.641246e-14 ; sigma = 2.504521e-08
Cycle 2: max grad = 4.641246e-14 ; sigma = 1.136868e-13
Product_state fixed-point CI iteration converged after 2 cycles
Entering product-state fixed-point CI iteration
Cycle 0: max grad = 2.511558e-03 ; sigma = 0.000000e+00
Cycle 1: max grad = 4.641246e-14 ; sigma = 2.504521e-08
Cycle 2: max grad = 4.641246e-14 ; sigma = 1.136868e-13
Product_state fixed-point CI iteration converged after 2 cycles
Entering product-state fixed-point CI iteration
Cycle 0: max grad = 2.511558e-03 ; sigma = 0.000000e+00
Cycle 1: max grad = 4.641246e-14 ; sigma = 2.504521e-08
Cycle 2: max grad = 4.641246e-14 ; sigma = 0.000000e+00
Product_state fixed-point CI iteration converged after 2 cycles
Entering product-state fixed-point CI iteration
Cycle 0: max grad = 2.511558e-03 ; sigma = 0.000000e+00
Cycle 1: max grad = 2.320623e-14 ; sigma = 2.504532e-08
Cycle 2: max grad = 2.320623e-14 ; sigma = 0.000000e+00
Product_state fixed-point CI iteration converged after 2 cycles
Entering product-state fixed-point CI iteration
Cycle 0: max grad = 2.511558e-03 ; sigma = 0.000000e+00
Cycle 1: max grad = 4.641246e-14 ; sigma = 2.504521e-08
Cycle 2: max grad = 4.641246e-14 ; sigma = 0.000000e+00
Product_state fixed-point CI iteration converged after 2 cycles
Entering product-state fixed-point CI iteration
Cycle 0: max grad = 2.508228e-03 ; sigma = 0.000000e+00
Cycle 1: max grad = 2.842171e-14 ; sigma = 2.497893e-08
Cycle 2: max grad = 2.842171e-14 ; sigma = 1.136868e-13
Product_state fixed-point CI iteration converged after 2 cycles
Entering product-state fixed-point CI iteration
Cycle 0: max grad = 2.509541e-03 ; sigma = 0.000000e+00
Cycle 1: max grad = 1.989520e-13 ; sigma = 2.500497e-08
Cycle 2: max grad = 1.989520e-13 ; sigma = 1.136868e-13
Product_state fixed-point CI iteration converged after 2 cycles
Entering product-state fixed-point CI iteration
Cycle 0: max grad = 2.510854e-03 ; sigma = 0.000000e+00
Cycle 1: max grad = 5.684342e-14 ; sigma = 2.503123e-08
Cycle 2: max grad = 5.684342e-14 ; sigma = 0.000000e+00
Product_state fixed-point CI iteration converged after 2 cycles
Entering product-state fixed-point CI iteration
Cycle 0: max grad = 2.512166e-03 ; sigma = 0.000000e+00
Cycle 1: max grad = 2.842171e-14 ; sigma = 2.505749e-08
Cycle 2: max grad = 2.842171e-14 ; sigma = 1.136868e-13
Product_state fixed-point CI iteration converged after 2 cycles
Entering product-state fixed-point CI iteration
Cycle 0: max grad = 2.513479e-03 ; sigma = 0.000000e+00
Cycle 1: max grad = 1.421085e-13 ; sigma = 2.508398e-08
Cycle 2: max grad = 1.421085e-13 ; sigma = 1.136868e-13
Product_state fixed-point CI iteration converged after 2 cycles
Entering product-state fixed-point CI iteration
Cycle 0: max grad = 2.504804e-03 ; sigma = 0.000000e+00
Cycle 1: max grad = 1.136868e-13 ; sigma = 2.491095e-08
Cycle 2: max grad = 1.136868e-13 ; sigma = 1.136868e-13
Product_state fixed-point CI iteration converged after 2 cycles
Entering product-state fixed-point CI iteration
Cycle 0: max grad = 2.507429e-03 ; sigma = 0.000000e+00
Cycle 1: max grad = 1.191616e-15 ; sigma = 2.496313e-08
Cycle 2: max grad = 1.191616e-15 ; sigma = 0.000000e+00
Product_state fixed-point CI iteration converged after 2 cycles
Entering product-state fixed-point CI iteration
Cycle 0: max grad = 2.510055e-03 ; sigma = 0.000000e+00
Cycle 1: max grad = 1.136868e-13 ; sigma = 2.501554e-08
Cycle 2: max grad = 1.136868e-13 ; sigma = 0.000000e+00
Product_state fixed-point CI iteration converged after 2 cycles
Entering product-state fixed-point CI iteration
Cycle 0: max grad = 2.512680e-03 ; sigma = 0.000000e+00
Cycle 1: max grad = 1.966065e-15 ; sigma = 2.506874e-08
Cycle 2: max grad = 1.966065e-15 ; sigma = 1.136868e-13
Product_state fixed-point CI iteration converged after 2 cycles
Entering product-state fixed-point CI iteration
Cycle 0: max grad = 9.205398e-03 ; sigma = 0.000000e+00
Cycle 1: max grad = 1.925413e-04 ; sigma = 1.386739e-02
Cycle 2: max grad = 3.806094e-06 ; sigma = 5.281134e-06
Cycle 3: max grad = 1.102494e-08 ; sigma = 2.942215e-10
Cycle 4: max grad = 2.150559e-10 ; sigma = 6.821210e-13
Product_state fixed-point CI iteration converged after 4 cycles
Entering product-state fixed-point CI iteration
Cycle 0: max grad = 1.364572e-03 ; sigma = 0.000000e+00
Cycle 1: max grad = 1.348160e-14 ; sigma = 4.635324e-03
Cycle 2: max grad = 1.348160e-14 ; sigma = 0.000000e+00
Product_state fixed-point CI iteration converged after 2 cycles
Entering product-state fixed-point CI iteration
Cycle 0: max grad = 3.755049e-03 ; sigma = 0.000000e+00
Cycle 1: max grad = 2.952061e-04 ; sigma = 1.424532e-02
Cycle 2: max grad = 3.300447e-07 ; sigma = 2.289512e-06
Cycle 3: max grad = 2.590944e-10 ; sigma = 2.501110e-12
Product_state fixed-point CI iteration converged after 3 cycles
Entering product-state fixed-point CI iteration
Cycle 0: max grad = 2.511080e-03 ; sigma = 0.000000e+00
Cycle 1: max grad = 1.139999e-04 ; sigma = 1.413815e-02
Cycle 2: max grad = 8.257151e-08 ; sigma = 1.951905e-07
Cycle 3: max grad = 3.608581e-10 ; sigma = 4.547474e-13
Product_state fixed-point CI iteration converged after 3 cycles
Entering product-state fixed-point CI iteration
Cycle 0: max grad = 9.454207e-03 ; sigma = 0.000000e+00
Cycle 1: max grad = 7.065949e-05 ; sigma = 1.464888e-02
Cycle 2: max grad = 2.108916e-06 ; sigma = 1.130573e-06
Cycle 3: max grad = 1.341870e-08 ; sigma = 4.296226e-10
Cycle 4: max grad = 8.045799e-10 ; sigma = 5.684342e-13
Product_state fixed-point CI iteration converged after 4 cycles
Entering product-state fixed-point CI iteration
Cycle 0: max grad = 8.004559e-04 ; sigma = 0.000000e+00
Cycle 1: max grad = 2.246933e-14 ; sigma = 4.242280e-03
Cycle 2: max grad = 2.246933e-14 ; sigma = 5.684342e-14
Product_state fixed-point CI iteration converged after 2 cycles
Entering product-state fixed-point CI iteration
Cycle 0: max grad = 1.908371e-02 ; sigma = 0.000000e+00
Cycle 1: max grad = 2.640342e-04 ; sigma = 2.149907e-02
Cycle 2: max grad = 3.063087e-07 ; sigma = 1.861499e-06
Cycle 3: max grad = 2.131484e-10 ; sigma = 2.728484e-12
Product_state fixed-point CI iteration converged after 3 cycles
Entering product-state fixed-point CI iteration
Cycle 0: max grad = 1.995017e-02 ; sigma = 0.000000e+00
Cycle 1: max grad = 1.285335e-04 ; sigma = 2.291700e-02
Cycle 2: max grad = 9.494257e-08 ; sigma = 2.415808e-07
Cycle 3: max grad = 2.058805e-10 ; sigma = 1.136868e-13
Product_state fixed-point CI iteration converged after 3 cycles
Entering product-state fixed-point CI iteration
Cycle 0: max grad = 1.460596e-03 ; sigma = 0.000000e+00
Cycle 1: max grad = 1.696577e-15 ; sigma = 4.848960e-03
Cycle 2: max grad = 2.239709e-15 ; sigma = 5.684342e-14
Product_state fixed-point CI iteration converged after 2 cycles
Entering product-state fixed-point CI iteration
Cycle 0: max grad = 1.910559e-02 ; sigma = 0.000000e+00
Cycle 1: max grad = 2.682763e-04 ; sigma = 2.127786e-02
Cycle 2: max grad = 3.161281e-07 ; sigma = 1.924963e-06
Cycle 3: max grad = 2.198135e-10 ; sigma = 2.273737e-12
Product_state fixed-point CI iteration converged after 3 cycles
Entering product-state fixed-point CI iteration
Cycle 0: max grad = 3.757784e-03 ; sigma = 0.000000e+00
Cycle 1: max grad = 2.665411e-04 ; sigma = 1.415790e-02
Cycle 2: max grad = 3.439386e-07 ; sigma = 1.868948e-06
Cycle 3: max grad = 2.112870e-10 ; sigma = 1.477929e-12
Product_state fixed-point CI iteration converged after 3 cycles
Entering product-state fixed-point CI iteration
Cycle 0: max grad = 2.510830e-03 ; sigma = 0.000000e+00
Cycle 1: max grad = 4.749575e-05 ; sigma = 1.416960e-02
Cycle 2: max grad = 3.722546e-08 ; sigma = 4.485094e-08
Cycle 3: max grad = 1.858888e-10 ; sigma = 1.136868e-13
Product_state fixed-point CI iteration converged after 3 cycles
Entering product-state fixed-point CI iteration
Cycle 0: max grad = 9.209427e-03 ; sigma = 0.000000e+00
Cycle 1: max grad = 1.971433e-04 ; sigma = 1.394164e-02
Cycle 2: max grad = 4.036619e-06 ; sigma = 5.530260e-06
Cycle 3: max grad = 1.194584e-08 ; sigma = 3.279865e-10
Cycle 4: max grad = 2.422240e-10 ; sigma = 4.547474e-13
Product_state fixed-point CI iteration converged after 4 cycles
Entering product-state fixed-point CI iteration
Cycle 0: max grad = 1.396376e-03 ; sigma = 0.000000e+00
Cycle 1: max grad = 4.448701e-14 ; sigma = 4.743543e-03
Cycle 2: max grad = 1.271057e-14 ; sigma = 1.136868e-13
Product_state fixed-point CI iteration converged after 2 cycles
Entering product-state fixed-point CI iteration
Cycle 0: max grad = 9.470815e-03 ; sigma = 0.000000e+00
Cycle 1: max grad = 5.411856e-05 ; sigma = 1.468088e-02
Cycle 2: max grad = 1.643849e-06 ; sigma = 9.257299e-07
Cycle 3: max grad = 8.538566e-09 ; sigma = 2.398792e-10
Cycle 4: max grad = 4.276330e-10 ; sigma = 2.273737e-13
Product_state fixed-point CI iteration converged after 4 cycles
Entering product-state fixed-point CI iteration
Cycle 0: max grad = 7.707365e-04 ; sigma = 0.000000e+00
Cycle 1: max grad = 1.271057e-14 ; sigma = 4.321237e-03
Cycle 2: max grad = 1.271057e-14 ; sigma = 1.136868e-13
Product_state fixed-point CI iteration converged after 2 cycles
Entering product-state fixed-point CI iteration
Cycle 0: max grad = 1.997865e-02 ; sigma = 0.000000e+00
Cycle 1: max grad = 6.325334e-05 ; sigma = 2.275212e-02
Cycle 2: max grad = 8.941910e-08 ; sigma = 9.506812e-08
Cycle 3: max grad = 1.158867e-10 ; sigma = 0.000000e+00
Product_state fixed-point CI iteration converged after 3 cycles
Entering product-state fixed-point CI iteration
Cycle 0: max grad = 1.525060e-03 ; sigma = 0.000000e+00
Cycle 1: max grad = 3.330669e-15 ; sigma = 4.910668e-03
Cycle 2: max grad = 5.329071e-15 ; sigma = 1.136868e-13
Product_state fixed-point CI iteration converged after 2 cycles
Entering product-state fixed-point CI iteration
Cycle 0: max grad = 7.558767e-04 ; sigma = 0.000000e+00
Cycle 1: max grad = 2.527800e-15 ; sigma = 4.360715e-03
Cycle 2: max grad = 2.527800e-15 ; sigma = 5.684342e-14
Product_state fixed-point CI iteration converged after 2 cycles
Entering product-state fixed-point CI iteration
Cycle 0: max grad = 1.912410e-02 ; sigma = 0.000000e+00
Cycle 1: max grad = 2.561003e-04 ; sigma = 2.115980e-02
Cycle 2: max grad = 2.887359e-07 ; sigma = 1.753517e-06
Cycle 3: max grad = 2.116280e-10 ; sigma = 2.501110e-12
Product_state fixed-point CI iteration converged after 3 cycles
Entering product-state fixed-point CI iteration
Cycle 0: max grad = 3.756803e-03 ; sigma = 0.000000e+00
Cycle 1: max grad = 2.773920e-04 ; sigma = 1.394477e-02
Cycle 2: max grad = 3.410037e-07 ; sigma = 2.023886e-06
Cycle 3: max grad = 2.139871e-10 ; sigma = 2.273737e-12
Product_state fixed-point CI iteration converged after 3 cycles
Entering product-state fixed-point CI iteration
Cycle 0: max grad = 2.509558e-03 ; sigma = 0.000000e+00
Cycle 1: max grad = 4.375945e-05 ; sigma = 1.400209e-02
Cycle 2: max grad = 3.365212e-08 ; sigma = 2.580100e-08
Cycle 3: max grad = 1.740589e-10 ; sigma = 3.410605e-13
Product_state fixed-point CI iteration converged after 3 cycles
Entering product-state fixed-point CI iteration
Cycle 0: max grad = 9.209384e-03 ; sigma = 0.000000e+00
Cycle 1: max grad = 1.879551e-04 ; sigma = 1.392302e-02
Cycle 2: max grad = 3.506226e-06 ; sigma = 5.022444e-06
Cycle 3: max grad = 9.756010e-09 ; sigma = 2.540901e-10
Cycle 4: max grad = 1.800942e-10 ; sigma = 6.821210e-13
Product_state fixed-point CI iteration converged after 4 cycles
Entering product-state fixed-point CI iteration
Cycle 0: max grad = 1.460596e-03 ; sigma = 0.000000e+00
Cycle 1: max grad = 1.906586e-14 ; sigma = 4.848960e-03
Cycle 2: max grad = 1.906586e-14 ; sigma = 1.136868e-13
Product_state fixed-point CI iteration converged after 2 cycles
Entering product-state fixed-point CI iteration
Cycle 0: max grad = 9.473049e-03 ; sigma = 0.000000e+00
Cycle 1: max grad = 6.028918e-05 ; sigma = 1.468848e-02
Cycle 2: max grad = 1.743798e-06 ; sigma = 9.654335e-07
Cycle 3: max grad = 9.691284e-09 ; sigma = 2.763727e-10
Cycle 4: max grad = 5.010179e-10 ; sigma = 7.958079e-13
Product_state fixed-point CI iteration converged after 4 cycles
Entering product-state fixed-point CI iteration
Cycle 0: max grad = 7.437136e-04 ; sigma = 0.000000e+00
Cycle 1: max grad = 5.719759e-14 ; sigma = 4.461522e-03
Cycle 2: max grad = 5.719759e-14 ; sigma = 5.684342e-14
Product_state fixed-point CI iteration converged after 2 cycles
Entering product-state fixed-point CI iteration
Cycle 0: max grad = 1.997657e-02 ; sigma = 0.000000e+00
Cycle 1: max grad = 6.411143e-05 ; sigma = 2.280804e-02
Cycle 2: max grad = 9.208344e-08 ; sigma = 9.775772e-08
Cycle 3: max grad = 1.296303e-10 ; sigma = 1.136868e-13
Product_state fixed-point CI iteration converged after 3 cycles
Entering product-state fixed-point CI iteration
Cycle 0: max grad = 1.557598e-03 ; sigma = 0.000000e+00
Cycle 1: max grad = 2.354020e-15 ; sigma = 4.887580e-03
Cycle 2: max grad = 1.776357e-15 ; sigma = 5.684342e-14
Product_state fixed-point CI iteration converged after 2 cycles
Entering product-state fixed-point CI iteration
Cycle 0: max grad = 7.362837e-04 ; sigma = 0.000000e+00
Cycle 1: max grad = 1.776357e-15 ; sigma = 4.481262e-03
Cycle 2: max grad = 3.080124e-15 ; sigma = 1.136868e-13
Product_state fixed-point CI iteration converged after 2 cycles
Entering product-state fixed-point CI iteration
Cycle 0: max grad = 1.912578e-02 ; sigma = 0.000000e+00
Cycle 1: max grad = 2.439098e-04 ; sigma = 2.119811e-02
Cycle 2: max grad = 2.625453e-07 ; sigma = 1.589944e-06
Cycle 3: max grad = 2.266347e-10 ; sigma = 2.160050e-12
Product_state fixed-point CI iteration converged after 3 cycles
Entering product-state fixed-point CI iteration
Cycle 0: max grad = 3.755822e-03 ; sigma = 0.000000e+00
Cycle 1: max grad = 2.882384e-04 ; sigma = 1.389553e-02
Cycle 2: max grad = 3.361454e-07 ; sigma = 2.184898e-06
Cycle 3: max grad = 2.347065e-10 ; sigma = 2.501110e-12
Product_state fixed-point CI iteration converged after 3 cycles
Entering product-state fixed-point CI iteration
Cycle 0: max grad = 2.508285e-03 ; sigma = 0.000000e+00
Cycle 1: max grad = 4.754250e-05 ; sigma = 1.393578e-02
Cycle 2: max grad = 4.299715e-08 ; sigma = 4.497213e-08
Cycle 3: max grad = 2.207729e-10 ; sigma = 1.136868e-13
Product_state fixed-point CI iteration converged after 3 cycles
Entering product-state fixed-point CI iteration
Cycle 0: max grad = 9.209341e-03 ; sigma = 0.000000e+00
Cycle 1: max grad = 1.777801e-04 ; sigma = 1.390440e-02
Cycle 2: max grad = 2.975283e-06 ; sigma = 4.500729e-06
Cycle 3: max grad = 7.751676e-09 ; sigma = 1.923581e-10
Cycle 4: max grad = 1.275708e-10 ; sigma = 2.273737e-13
Product_state fixed-point CI iteration converged after 4 cycles
Entering product-state fixed-point CI iteration
Cycle 0: max grad = 1.492889e-03 ; sigma = 0.000000e+00
Cycle 1: max grad = 2.542115e-14 ; sigma = 4.868652e-03
Cycle 2: max grad = 2.542115e-14 ; sigma = 5.684342e-14
Product_state fixed-point CI iteration converged after 2 cycles
Entering product-state fixed-point CI iteration
Cycle 0: max grad = 9.475283e-03 ; sigma = 0.000000e+00
Cycle 1: max grad = 6.643666e-05 ; sigma = 1.469609e-02
Cycle 2: max grad = 1.888935e-06 ; sigma = 1.027642e-06
Cycle 3: max grad = 1.134247e-08 ; sigma = 3.346941e-10
Cycle 4: max grad = 6.185132e-10 ; sigma = 6.821210e-13
Product_state fixed-point CI iteration converged after 4 cycles
Entering product-state fixed-point CI iteration
Cycle 0: max grad = 7.421358e-04 ; sigma = 0.000000e+00
Cycle 1: max grad = 3.813172e-14 ; sigma = 4.488545e-03
Cycle 2: max grad = 3.813172e-14 ; sigma = 5.684342e-14
Product_state fixed-point CI iteration converged after 2 cycles
Entering product-state fixed-point CI iteration
Cycle 0: max grad = 1.996025e-02 ; sigma = 0.000000e+00
Cycle 1: max grad = 6.316490e-05 ; sigma = 2.294645e-02
Cycle 2: max grad = 8.973022e-08 ; sigma = 9.493090e-08
Cycle 3: max grad = 1.114036e-10 ; sigma = 2.273737e-13
Product_state fixed-point CI iteration converged after 3 cycles
Entering product-state fixed-point CI iteration
Cycle 0: max grad = 7.421358e-04 ; sigma = 0.000000e+00
Cycle 1: max grad = 3.666246e-15 ; sigma = 4.488545e-03
Cycle 2: max grad = 1.812989e-15 ; sigma = 0.000000e+00
Product_state fixed-point CI iteration converged after 2 cycles
Entering product-state fixed-point CI iteration
Cycle 0: max grad = 1.911062e-02 ; sigma = 0.000000e+00
Cycle 1: max grad = 2.317204e-04 ; sigma = 2.139268e-02
Cycle 2: max grad = 2.490766e-07 ; sigma = 1.434456e-06
Cycle 3: max grad = 2.607408e-10 ; sigma = 2.387424e-12
Product_state fixed-point CI iteration converged after 3 cycles
Entering product-state fixed-point CI iteration
Cycle 0: max grad = 3.754842e-03 ; sigma = 0.000000e+00
Cycle 1: max grad = 2.990640e-04 ; sigma = 1.401026e-02
Cycle 2: max grad = 3.292346e-07 ; sigma = 2.351716e-06
Cycle 3: max grad = 2.769411e-10 ; sigma = 2.387424e-12
Product_state fixed-point CI iteration converged after 3 cycles
Entering product-state fixed-point CI iteration
Cycle 0: max grad = 9.209298e-03 ; sigma = 0.000000e+00
Cycle 1: max grad = 1.668673e-04 ; sigma = 1.388578e-02
Cycle 2: max grad = 2.449827e-06 ; sigma = 3.983173e-06
Cycle 3: max grad = 5.966470e-09 ; sigma = 1.430180e-10
Cycle 4: max grad = 8.250822e-11 ; sigma = 2.273737e-13
Product_state fixed-point CI iteration converged after 4 cycles
Entering product-state fixed-point CI iteration
Cycle 0: max grad = 1.493256e-03 ; sigma = 0.000000e+00
Cycle 1: max grad = 4.448701e-14 ; sigma = 4.802884e-03
Cycle 2: max grad = 4.448701e-14 ; sigma = 1.705303e-13
Product_state fixed-point CI iteration converged after 2 cycles
Entering product-state fixed-point CI iteration
Cycle 0: max grad = 9.477517e-03 ; sigma = 0.000000e+00
Cycle 1: max grad = 7.255663e-05 ; sigma = 1.470371e-02
Cycle 2: max grad = 2.090308e-06 ; sigma = 1.116524e-06
Cycle 3: max grad = 1.363645e-08 ; sigma = 4.268941e-10
Cycle 4: max grad = 8.027428e-10 ; sigma = 4.547474e-13
Product_state fixed-point CI iteration converged after 4 cycles
Entering product-state fixed-point CI iteration
Cycle 0: max grad = 7.660031e-04 ; sigma = 0.000000e+00
Cycle 1: max grad = 1.271058e-14 ; sigma = 4.402305e-03
Cycle 2: max grad = 1.271058e-14 ; sigma = 1.136868e-13
Product_state fixed-point CI iteration converged after 2 cycles
Entering product-state fixed-point CI iteration
Cycle 0: max grad = 3.756356e-03 ; sigma = 0.000000e+00
Cycle 1: max grad = 2.807833e-04 ; sigma = 1.420156e-02
Cycle 2: max grad = 3.379646e-07 ; sigma = 2.071709e-06
Cycle 3: max grad = 2.169225e-10 ; sigma = 2.273737e-12
Product_state fixed-point CI iteration converged after 3 cycles
Entering product-state fixed-point CI iteration
Cycle 0: max grad = 2.511654e-03 ; sigma = 0.000000e+00
Cycle 1: max grad = 8.076715e-05 ; sigma = 1.415386e-02
Cycle 2: max grad = 5.861480e-08 ; sigma = 1.052674e-07
Cycle 3: max grad = 2.431954e-10 ; sigma = 3.410605e-13
Product_state fixed-point CI iteration converged after 3 cycles
Entering product-state fixed-point CI iteration
Cycle 0: max grad = 9.451229e-03 ; sigma = 0.000000e+00
Cycle 1: max grad = 6.247041e-05 ; sigma = 1.463874e-02
Cycle 2: max grad = 1.866072e-06 ; sigma = 1.024881e-06
Cycle 3: max grad = 1.067259e-08 ; sigma = 3.204832e-10
Cycle 4: max grad = 5.858606e-10 ; sigma = 2.273737e-13
Product_state fixed-point CI iteration converged after 4 cycles
Entering product-state fixed-point CI iteration
Cycle 0: max grad = 7.855962e-04 ; sigma = 0.000000e+00
Cycle 1: max grad = 1.797547e-14 ; sigma = 4.281758e-03
Cycle 2: max grad = 1.797547e-14 ; sigma = 0.000000e+00
Product_state fixed-point CI iteration converged after 2 cycles
Entering product-state fixed-point CI iteration
Cycle 0: max grad = 1.996901e-02 ; sigma = 0.000000e+00
Cycle 1: max grad = 9.125309e-05 ; sigma = 2.278600e-02
Cycle 2: max grad = 8.451364e-08 ; sigma = 1.203598e-07
Cycle 3: max grad = 1.409159e-10 ; sigma = 1.136868e-13
Product_state fixed-point CI iteration converged after 3 cycles
Entering product-state fixed-point CI iteration
Cycle 0: max grad = 1.911232e-02 ; sigma = 0.000000e+00
Cycle 1: max grad = 2.599765e-04 ; sigma = 2.125124e-02
Cycle 2: max grad = 2.972852e-07 ; sigma = 1.804488e-06
Cycle 3: max grad = 2.110890e-10 ; sigma = 2.387424e-12
Product_state fixed-point CI iteration converged after 3 cycles
Entering product-state fixed-point CI iteration
Cycle 0: max grad = 3.756029e-03 ; sigma = 0.000000e+00
Cycle 1: max grad = 2.843973e-04 ; sigma = 1.396658e-02
Cycle 2: max grad = 3.371536e-07 ; sigma = 2.125271e-06
Cycle 3: max grad = 2.248564e-10 ; sigma = 2.501110e-12
Product_state fixed-point CI iteration converged after 3 cycles
Entering product-state fixed-point CI iteration
Cycle 0: max grad = 2.511018e-03 ; sigma = 0.000000e+00
Cycle 1: max grad = 4.753311e-05 ; sigma = 1.399423e-02
Cycle 2: max grad = 3.727227e-08 ; sigma = 4.494586e-08
Cycle 3: max grad = 1.884166e-10 ; sigma = 3.410605e-13
Product_state fixed-point CI iteration converged after 3 cycles
Entering product-state fixed-point CI iteration
Cycle 0: max grad = 9.205383e-03 ; sigma = 0.000000e+00
Cycle 1: max grad = 1.906998e-04 ; sigma = 1.386118e-02
Cycle 2: max grad = 3.670920e-06 ; sigma = 5.171777e-06
Cycle 3: max grad = 1.044422e-08 ; sigma = 2.763727e-10
Cycle 4: max grad = 1.987020e-10 ; sigma = 2.273737e-13
Product_state fixed-point CI iteration converged after 4 cycles
Entering product-state fixed-point CI iteration
Cycle 0: max grad = 1.428547e-03 ; sigma = 0.000000e+00
Cycle 1: max grad = 1.348160e-14 ; sigma = 4.785084e-03
Cycle 2: max grad = 1.348160e-14 ; sigma = 1.136868e-13
Product_state fixed-point CI iteration converged after 2 cycles
Entering product-state fixed-point CI iteration
Cycle 0: max grad = 9.451974e-03 ; sigma = 0.000000e+00
Cycle 1: max grad = 6.454381e-05 ; sigma = 1.464128e-02
Cycle 2: max grad = 1.854578e-06 ; sigma = 1.014244e-06
Cycle 3: max grad = 1.088509e-08 ; sigma = 3.202558e-10
Cycle 4: max grad = 5.881579e-10 ; sigma = 6.821210e-13
Product_state fixed-point CI iteration converged after 4 cycles
Entering product-state fixed-point CI iteration
Cycle 0: max grad = 7.511434e-04 ; sigma = 0.000000e+00
Cycle 1: max grad = 3.595093e-14 ; sigma = 4.441783e-03
Cycle 2: max grad = 3.595093e-14 ; sigma = 5.684342e-14
Product_state fixed-point CI iteration converged after 2 cycles
Entering product-state fixed-point CI iteration
Cycle 0: max grad = 1.997865e-02 ; sigma = 0.000000e+00
Cycle 1: max grad = 6.323824e-05 ; sigma = 2.275212e-02
Cycle 2: max grad = 8.948845e-08 ; sigma = 9.511700e-08
Cycle 3: max grad = 1.145487e-10 ; sigma = 2.273737e-13
Product_state fixed-point CI iteration converged after 3 cycles
Entering product-state fixed-point CI iteration
Cycle 0: max grad = 1.912410e-02 ; sigma = 0.000000e+00
Cycle 1: max grad = 2.559147e-04 ; sigma = 2.115980e-02
Cycle 2: max grad = 2.883364e-07 ; sigma = 1.748316e-06
Cycle 3: max grad = 2.114008e-10 ; sigma = 2.501110e-12
Product_state fixed-point CI iteration converged after 3 cycles
Entering product-state fixed-point CI iteration
Cycle 0: max grad = 3.755703e-03 ; sigma = 0.000000e+00
Cycle 1: max grad = 2.880094e-04 ; sigma = 1.389553e-02
Cycle 2: max grad = 3.355927e-07 ; sigma = 2.179482e-06
Cycle 3: max grad = 2.341030e-10 ; sigma = 2.387424e-12
Product_state fixed-point CI iteration converged after 3 cycles
Entering product-state fixed-point CI iteration
Cycle 0: max grad = 2.510381e-03 ; sigma = 0.000000e+00
Cycle 1: max grad = 4.754481e-05 ; sigma = 1.393578e-02
Cycle 2: max grad = 3.821844e-08 ; sigma = 4.497588e-08
Cycle 3: max grad = 1.962330e-10 ; sigma = 1.136868e-13
Product_state fixed-point CI iteration converged after 3 cycles
Entering product-state fixed-point CI iteration
Cycle 0: max grad = 9.205369e-03 ; sigma = 0.000000e+00
Cycle 1: max grad = 1.878982e-04 ; sigma = 1.385498e-02
Cycle 2: max grad = 3.507488e-06 ; sigma = 5.019488e-06
Cycle 3: max grad = 9.778121e-09 ; sigma = 2.548859e-10
Cycle 4: max grad = 1.805554e-10 ; sigma = 9.094947e-13
Product_state fixed-point CI iteration converged after 4 cycles
Entering product-state fixed-point CI iteration
Cycle 0: max grad = 1.460596e-03 ; sigma = 0.000000e+00
Cycle 1: max grad = 8.987734e-15 ; sigma = 4.848960e-03
Cycle 2: max grad = 2.246933e-14 ; sigma = 0.000000e+00
Product_state fixed-point CI iteration converged after 2 cycles
Entering product-state fixed-point CI iteration
Cycle 0: max grad = 9.452718e-03 ; sigma = 0.000000e+00
Cycle 1: max grad = 6.660064e-05 ; sigma = 1.464381e-02
Cycle 2: max grad = 1.889132e-06 ; sigma = 1.027591e-06
Cycle 3: max grad = 1.138700e-08 ; sigma = 3.367404e-10
Cycle 4: max grad = 6.212226e-10 ; sigma = 5.684342e-13
Product_state fixed-point CI iteration converged after 4 cycles
Entering product-state fixed-point CI iteration
Cycle 0: max grad = 7.421358e-04 ; sigma = 0.000000e+00
Cycle 1: max grad = 4.044480e-14 ; sigma = 4.488545e-03
Cycle 2: max grad = 4.044480e-14 ; sigma = 1.136868e-13
Product_state fixed-point CI iteration converged after 2 cycles
Entering product-state fixed-point CI iteration
Cycle 0: max grad = 1.997405e-02 ; sigma = 0.000000e+00
Cycle 1: max grad = 6.321613e-05 ; sigma = 2.280069e-02
Cycle 2: max grad = 8.956648e-08 ; sigma = 9.508278e-08
Cycle 3: max grad = 1.134310e-10 ; sigma = 2.273737e-13
Product_state fixed-point CI iteration converged after 3 cycles
Entering product-state fixed-point CI iteration
Cycle 0: max grad = 1.911905e-02 ; sigma = 0.000000e+00
Cycle 1: max grad = 2.518540e-04 ; sigma = 2.122465e-02
Cycle 2: max grad = 2.794534e-07 ; sigma = 1.693059e-06
Cycle 3: max grad = 2.138786e-10 ; sigma = 2.273737e-12
Product_state fixed-point CI iteration converged after 3 cycles
Entering product-state fixed-point CI iteration
Cycle 0: max grad = 3.755376e-03 ; sigma = 0.000000e+00
Cycle 1: max grad = 2.916142e-04 ; sigma = 1.398841e-02
Cycle 2: max grad = 3.332366e-07 ; sigma = 2.234259e-06
Cycle 3: max grad = 2.453598e-10 ; sigma = 2.842171e-12
Product_state fixed-point CI iteration converged after 3 cycles
Entering product-state fixed-point CI iteration
Cycle 0: max grad = 2.509745e-03 ; sigma = 0.000000e+00
Cycle 1: max grad = 8.078260e-05 ; sigma = 1.397852e-02
Cycle 2: max grad = 5.866200e-08 ; sigma = 1.054436e-07
Cycle 3: max grad = 2.773307e-10 ; sigma = 1.136868e-13
Product_state fixed-point CI iteration converged after 3 cycles
Entering product-state fixed-point CI iteration
Cycle 0: max grad = 9.205355e-03 ; sigma = 0.000000e+00
Cycle 1: max grad = 1.842470e-04 ; sigma = 1.384877e-02
Cycle 2: max grad = 3.316931e-06 ; sigma = 4.828738e-06
Cycle 3: max grad = 9.044344e-09 ; sigma = 2.308980e-10
Cycle 4: max grad = 1.609176e-10 ; sigma = 4.547474e-13
Product_state fixed-point CI iteration converged after 4 cycles
Entering product-state fixed-point CI iteration
Cycle 0: max grad = 1.460718e-03 ; sigma = 0.000000e+00
Cycle 1: max grad = 7.569927e-15 ; sigma = 4.826788e-03
Cycle 2: max grad = 4.493867e-15 ; sigma = 1.136868e-13
Product_state fixed-point CI iteration converged after 2 cycles
Entering product-state fixed-point CI iteration
Cycle 0: max grad = 9.453463e-03 ; sigma = 0.000000e+00
Cycle 1: max grad = 6.864061e-05 ; sigma = 1.464635e-02
Cycle 2: max grad = 1.970012e-06 ; sigma = 1.064594e-06
Cycle 3: max grad = 1.220006e-08 ; sigma = 3.697096e-10
Cycle 4: max grad = 6.882709e-10 ; sigma = 3.410605e-13
Product_state fixed-point CI iteration converged after 4 cycles
Entering product-state fixed-point CI iteration
Cycle 0: max grad = 7.585733e-04 ; sigma = 0.000000e+00
Cycle 1: max grad = 1.348160e-14 ; sigma = 4.422044e-03
Cycle 2: max grad = 1.348160e-14 ; sigma = 5.684342e-14
Product_state fixed-point CI iteration converged after 2 cycles
Entering product-state fixed-point CI iteration
Cycle 0: max grad = 1.995521e-02 ; sigma = 0.000000e+00
Cycle 1: max grad = 9.106203e-05 ; sigma = 2.293170e-02
Cycle 2: max grad = 8.473376e-08 ; sigma = 1.197537e-07
Cycle 3: max grad = 1.383529e-10 ; sigma = 2.273737e-13
Product_state fixed-point CI iteration converged after 3 cycles
Entering product-state fixed-point CI iteration
Cycle 0: max grad = 1.909716e-02 ; sigma = 0.000000e+00
Cycle 1: max grad = 2.477997e-04 ; sigma = 2.144580e-02
Cycle 2: max grad = 2.706292e-07 ; sigma = 1.638782e-06
Cycle 3: max grad = 2.175132e-10 ; sigma = 2.046363e-12
Product_state fixed-point CI iteration converged after 3 cycles
Entering product-state fixed-point CI iteration
Cycle 0: max grad = 3.755049e-03 ; sigma = 0.000000e+00
Cycle 1: max grad = 2.952061e-04 ; sigma = 1.424532e-02
Cycle 2: max grad = 3.300447e-07 ; sigma = 2.289512e-06
Cycle 3: max grad = 2.590615e-10 ; sigma = 2.387424e-12
Product_state fixed-point CI iteration converged after 3 cycles
Entering product-state fixed-point CI iteration
Cycle 0: max grad = 9.205340e-03 ; sigma = 0.000000e+00
Cycle 1: max grad = 1.798168e-04 ; sigma = 1.384257e-02
Cycle 2: max grad = 3.101233e-06 ; sigma = 4.606505e-06
Cycle 3: max grad = 8.259908e-09 ; sigma = 2.054321e-10
Cycle 4: max grad = 1.398214e-10 ; sigma = 1.136868e-13
Product_state fixed-point CI iteration converged after 4 cycles
Entering product-state fixed-point CI iteration
Cycle 0: max grad = 1.428914e-03 ; sigma = 0.000000e+00
Cycle 1: max grad = 3.595093e-14 ; sigma = 4.718783e-03
Cycle 2: max grad = 3.595093e-14 ; sigma = 5.684342e-14
Product_state fixed-point CI iteration converged after 2 cycles
Entering product-state fixed-point CI iteration
Cycle 0: max grad = 9.454207e-03 ; sigma = 0.000000e+00
Cycle 1: max grad = 7.065949e-05 ; sigma = 1.464888e-02
Cycle 2: max grad = 2.108916e-06 ; sigma = 1.130573e-06
Cycle 3: max grad = 1.341870e-08 ; sigma = 4.291678e-10
Cycle 4: max grad = 8.045799e-10 ; sigma = 7.958079e-13
Product_state fixed-point CI iteration converged after 4 cycles
Entering product-state fixed-point CI iteration
Cycle 0: max grad = 8.004559e-04 ; sigma = 0.000000e+00
Cycle 1: max grad = 2.246933e-14 ; sigma = 4.242280e-03
Cycle 2: max grad = 2.246933e-14 ; sigma = 5.684342e-14
Product_state fixed-point CI iteration converged after 2 cycles
Entering product-state fixed-point CI iteration
Cycle 0: max grad = 1.909716e-02 ; sigma = 0.000000e+00
Cycle 1: max grad = 2.477997e-04 ; sigma = 2.144580e-02
Cycle 2: max grad = 2.706292e-07 ; sigma = 1.638782e-06
Cycle 3: max grad = 2.176281e-10 ; sigma = 2.387424e-12
Product_state fixed-point CI iteration converged after 3 cycles
Entering product-state fixed-point CI iteration
Cycle 0: max grad = 3.755376e-03 ; sigma = 0.000000e+00
Cycle 1: max grad = 2.916142e-04 ; sigma = 1.398841e-02
Cycle 2: max grad = 3.332366e-07 ; sigma = 2.234259e-06
Cycle 3: max grad = 2.452777e-10 ; sigma = 2.614797e-12
Product_state fixed-point CI iteration converged after 3 cycles
Entering product-state fixed-point CI iteration
Cycle 0: max grad = 2.511080e-03 ; sigma = 0.000000e+00
Cycle 1: max grad = 6.416325e-05 ; sigma = 1.398637e-02
Cycle 2: max grad = 4.806282e-08 ; sigma = 7.149833e-08
Cycle 3: max grad = 2.184275e-10 ; sigma = 2.273737e-13
Product_state fixed-point CI iteration converged after 3 cycles
Entering product-state fixed-point CI iteration
Cycle 0: max grad = 9.205340e-03 ; sigma = 0.000000e+00
Cycle 1: max grad = 1.798168e-04 ; sigma = 1.384257e-02
Cycle 2: max grad = 3.101234e-06 ; sigma = 4.606505e-06
Cycle 3: max grad = 8.259906e-09 ; sigma = 2.052047e-10
Cycle 4: max grad = 1.398563e-10 ; sigma = 2.273737e-13
Product_state fixed-point CI iteration converged after 4 cycles
Entering product-state fixed-point CI iteration
Cycle 0: max grad = 1.428914e-03 ; sigma = 0.000000e+00
Cycle 1: max grad = 3.595093e-14 ; sigma = 4.718783e-03
Cycle 2: max grad = 3.595093e-14 ; sigma = 0.000000e+00
Product_state fixed-point CI iteration converged after 2 cycles
Entering product-state fixed-point CI iteration
Cycle 0: max grad = 9.453463e-03 ; sigma = 0.000000e+00
Cycle 1: max grad = 6.864061e-05 ; sigma = 1.464635e-02
Cycle 2: max grad = 1.970012e-06 ; sigma = 1.064594e-06
Cycle 3: max grad = 1.220006e-08 ; sigma = 3.702780e-10
Cycle 4: max grad = 6.880412e-10 ; sigma = 2.273737e-13
Product_state fixed-point CI iteration converged after 4 cycles
Entering product-state fixed-point CI iteration
Cycle 0: max grad = 7.585733e-04 ; sigma = 0.000000e+00
Cycle 1: max grad = 1.348160e-14 ; sigma = 4.422044e-03
Cycle 2: max grad = 1.348160e-14 ; sigma = 1.705303e-13
Product_state fixed-point CI iteration converged after 2 cycles
Entering product-state fixed-point CI iteration
Cycle 0: max grad = 1.997153e-02 ; sigma = 0.000000e+00
Cycle 1: max grad = 7.251899e-05 ; sigma = 2.279334e-02
Cycle 2: max grad = 8.704202e-08 ; sigma = 9.241830e-08
Cycle 3: max grad = 1.202572e-10 ; sigma = 3.410605e-13
Product_state fixed-point CI iteration converged after 3 cycles
Entering product-state fixed-point CI iteration
Cycle 0: max grad = 1.911905e-02 ; sigma = 0.000000e+00
Cycle 1: max grad = 2.518540e-04 ; sigma = 2.122465e-02
Cycle 2: max grad = 2.794534e-07 ; sigma = 1.693058e-06
Cycle 3: max grad = 2.137145e-10 ; sigma = 1.932676e-12
Product_state fixed-point CI iteration converged after 3 cycles
Entering product-state fixed-point CI iteration
Cycle 0: max grad = 3.755703e-03 ; sigma = 0.000000e+00
Cycle 1: max grad = 2.880094e-04 ; sigma = 1.389553e-02
Cycle 2: max grad = 3.355927e-07 ; sigma = 2.179482e-06
Cycle 3: max grad = 2.341276e-10 ; sigma = 2.614797e-12
Product_state fixed-point CI iteration converged after 3 cycles
Entering product-state fixed-point CI iteration
Cycle 0: max grad = 2.511080e-03 ; sigma = 0.000000e+00
Cycle 1: max grad = 4.754558e-05 ; sigma = 1.393578e-02
Cycle 2: max grad = 3.728787e-08 ; sigma = 4.497690e-08
Cycle 3: max grad = 1.892848e-10 ; sigma = 2.273737e-13
Product_state fixed-point CI iteration converged after 3 cycles
Entering product-state fixed-point CI iteration
Cycle 0: max grad = 9.205355e-03 ; sigma = 0.000000e+00
Cycle 1: max grad = 1.842470e-04 ; sigma = 1.384877e-02
Cycle 2: max grad = 3.316931e-06 ; sigma = 4.828738e-06
Cycle 3: max grad = 9.044343e-09 ; sigma = 2.306706e-10
Cycle 4: max grad = 1.608151e-10 ; sigma = 1.136868e-13
Product_state fixed-point CI iteration converged after 4 cycles
Entering product-state fixed-point CI iteration
Cycle 0: max grad = 1.460718e-03 ; sigma = 0.000000e+00
Cycle 1: max grad = 8.987734e-15 ; sigma = 4.826788e-03
Cycle 2: max grad = 4.493867e-15 ; sigma = 5.684342e-14
Product_state fixed-point CI iteration converged after 2 cycles
Entering product-state fixed-point CI iteration
Cycle 0: max grad = 9.452718e-03 ; sigma = 0.000000e+00
Cycle 1: max grad = 6.660064e-05 ; sigma = 1.464381e-02
Cycle 2: max grad = 1.889132e-06 ; sigma = 1.027591e-06
Cycle 3: max grad = 1.138700e-08 ; sigma = 3.361720e-10
Cycle 4: max grad = 6.210421e-10 ; sigma = 2.273737e-13
Product_state fixed-point CI iteration converged after 4 cycles
Entering product-state fixed-point CI iteration
Cycle 0: max grad = 7.421358e-04 ; sigma = 0.000000e+00
Cycle 1: max grad = 4.044480e-14 ; sigma = 4.488545e-03
Cycle 2: max grad = 4.044480e-14 ; sigma = 5.684342e-14
Product_state fixed-point CI iteration converged after 2 cycles
Entering product-state fixed-point CI iteration
Cycle 0: max grad = 1.997865e-02 ; sigma = 0.000000e+00
Cycle 1: max grad = 6.323320e-05 ; sigma = 2.275212e-02
Cycle 2: max grad = 8.951160e-08 ; sigma = 9.513303e-08
Cycle 3: max grad = 1.141198e-10 ; sigma = 4.547474e-13
Product_state fixed-point CI iteration converged after 3 cycles
Entering product-state fixed-point CI iteration
Cycle 0: max grad = 1.912410e-02 ; sigma = 0.000000e+00
Cycle 1: max grad = 2.559147e-04 ; sigma = 2.115980e-02
Cycle 2: max grad = 2.883364e-07 ; sigma = 1.748316e-06
Cycle 3: max grad = 2.114582e-10 ; sigma = 2.387424e-12
Product_state fixed-point CI iteration converged after 3 cycles
Entering product-state fixed-point CI iteration
Cycle 0: max grad = 3.756029e-03 ; sigma = 0.000000e+00
Cycle 1: max grad = 2.843973e-04 ; sigma = 1.396658e-02
Cycle 2: max grad = 3.371536e-07 ; sigma = 2.125271e-06
Cycle 3: max grad = 2.246513e-10 ; sigma = 1.932676e-12
Product_state fixed-point CI iteration converged after 3 cycles
Entering product-state fixed-point CI iteration
Cycle 0: max grad = 2.511080e-03 ; sigma = 0.000000e+00
Cycle 1: max grad = 6.416325e-05 ; sigma = 1.398637e-02
Cycle 2: max grad = 4.806283e-08 ; sigma = 7.149845e-08
Cycle 3: max grad = 2.184321e-10 ; sigma = 1.136868e-13
Product_state fixed-point CI iteration converged after 3 cycles
Entering product-state fixed-point CI iteration
Cycle 0: max grad = 9.205369e-03 ; sigma = 0.000000e+00
Cycle 1: max grad = 1.878982e-04 ; sigma = 1.385498e-02
Cycle 2: max grad = 3.507488e-06 ; sigma = 5.019488e-06
Cycle 3: max grad = 9.778117e-09 ; sigma = 2.547722e-10
Cycle 4: max grad = 1.806067e-10 ; sigma = 4.547474e-13
Product_state fixed-point CI iteration converged after 4 cycles
Entering product-state fixed-point CI iteration
Cycle 0: max grad = 1.460596e-03 ; sigma = 0.000000e+00
Cycle 1: max grad = 2.246933e-14 ; sigma = 4.848960e-03
Cycle 2: max grad = 2.246933e-14 ; sigma = 0.000000e+00
Product_state fixed-point CI iteration converged after 2 cycles
Entering product-state fixed-point CI iteration
Cycle 0: max grad = 9.451974e-03 ; sigma = 0.000000e+00
Cycle 1: max grad = 6.454381e-05 ; sigma = 1.464128e-02
Cycle 2: max grad = 1.854578e-06 ; sigma = 1.014244e-06
Cycle 3: max grad = 1.088509e-08 ; sigma = 3.201421e-10
Cycle 4: max grad = 5.878133e-10 ; sigma = 4.547474e-13
Product_state fixed-point CI iteration converged after 4 cycles
Entering product-state fixed-point CI iteration
Cycle 0: max grad = 7.511434e-04 ; sigma = 0.000000e+00
Cycle 1: max grad = 3.595093e-14 ; sigma = 4.441783e-03
Cycle 2: max grad = 2.696320e-14 ; sigma = 1.136868e-13
Product_state fixed-point CI iteration converged after 2 cycles
Entering product-state fixed-point CI iteration
Cycle 0: max grad = 1.997153e-02 ; sigma = 0.000000e+00
Cycle 1: max grad = 7.251899e-05 ; sigma = 2.279334e-02
Cycle 2: max grad = 8.704202e-08 ; sigma = 9.241830e-08
Cycle 3: max grad = 1.202571e-10 ; sigma = 4.547474e-13
Product_state fixed-point CI iteration converged after 3 cycles
Entering product-state fixed-point CI iteration
Cycle 0: max grad = 1.911232e-02 ; sigma = 0.000000e+00
Cycle 1: max grad = 2.599765e-04 ; sigma = 2.125124e-02
Cycle 2: max grad = 2.972852e-07 ; sigma = 1.804488e-06
Cycle 3: max grad = 2.110562e-10 ; sigma = 2.273737e-12
Product_state fixed-point CI iteration converged after 3 cycles
Entering product-state fixed-point CI iteration
Cycle 0: max grad = 3.756356e-03 ; sigma = 0.000000e+00
Cycle 1: max grad = 2.807833e-04 ; sigma = 1.420156e-02
Cycle 2: max grad = 3.379646e-07 ; sigma = 2.071710e-06
Cycle 3: max grad = 2.168651e-10 ; sigma = 2.046363e-12
Product_state fixed-point CI iteration converged after 3 cycles
Entering product-state fixed-point CI iteration
Cycle 0: max grad = 2.511080e-03 ; sigma = 0.000000e+00
Cycle 1: max grad = 1.139999e-04 ; sigma = 1.413815e-02
Cycle 2: max grad = 8.257150e-08 ; sigma = 1.951905e-07
Cycle 3: max grad = 3.608539e-10 ; sigma = 4.547474e-13
Product_state fixed-point CI iteration converged after 3 cycles
Entering product-state fixed-point CI iteration
Cycle 0: max grad = 9.205383e-03 ; sigma = 0.000000e+00
Cycle 1: max grad = 1.906998e-04 ; sigma = 1.386118e-02
Cycle 2: max grad = 3.670920e-06 ; sigma = 5.171777e-06
Cycle 3: max grad = 1.044422e-08 ; sigma = 2.764864e-10
Cycle 4: max grad = 1.985154e-10 ; sigma = 5.684342e-13
Product_state fixed-point CI iteration converged after 4 cycles
Entering product-state fixed-point CI iteration
Cycle 0: max grad = 1.428547e-03 ; sigma = 0.000000e+00
Cycle 1: max grad = 1.348160e-14 ; sigma = 4.785084e-03
Cycle 2: max grad = 1.348160e-14 ; sigma = 1.136868e-13
Product_state fixed-point CI iteration converged after 2 cycles
Entering product-state fixed-point CI iteration
Cycle 0: max grad = 9.451229e-03 ; sigma = 0.000000e+00
Cycle 1: max grad = 6.247041e-05 ; sigma = 1.463874e-02
Cycle 2: max grad = 1.866072e-06 ; sigma = 1.024881e-06
Cycle 3: max grad = 1.067259e-08 ; sigma = 3.205969e-10
Cycle 4: max grad = 5.860083e-10 ; sigma = 1.136868e-13
Product_state fixed-point CI iteration converged after 4 cycles
Entering product-state fixed-point CI iteration
Cycle 0: max grad = 7.855962e-04 ; sigma = 0.000000e+00
Cycle 1: max grad = 1.797547e-14 ; sigma = 4.281758e-03
Cycle 2: max grad = 1.797547e-14 ; sigma = 0.000000e+00
Product_state fixed-point CI iteration converged after 2 cycles
Entering product-state fixed-point CI iteration
Cycle 0: max grad = 1.995017e-02 ; sigma = 0.000000e+00
Cycle 1: max grad = 1.285335e-04 ; sigma = 2.291700e-02
Cycle 2: max grad = 9.494257e-08 ; sigma = 2.415808e-07
Cycle 3: max grad = 2.058812e-10 ; sigma = 2.273737e-13
Product_state fixed-point CI iteration converged after 3 cycles
Entering product-state fixed-point CI iteration
Cycle 0: max grad = 1.908371e-02 ; sigma = 0.000000e+00
Cycle 1: max grad = 2.640342e-04 ; sigma = 2.149907e-02
Cycle 2: max grad = 3.063087e-07 ; sigma = 1.861499e-06
Cycle 3: max grad = 2.131402e-10 ; sigma = 2.160050e-12
Product_state fixed-point CI iteration converged after 3 cycles
Entering product-state fixed-point CI iteration
Cycle 0: max grad = 9.205398e-03 ; sigma = 0.000000e+00
Cycle 1: max grad = 1.925413e-04 ; sigma = 1.386739e-02
Cycle 2: max grad = 3.806094e-06 ; sigma = 5.281134e-06
Cycle 3: max grad = 1.102493e-08 ; sigma = 2.943352e-10
Cycle 4: max grad = 2.151175e-10 ; sigma = 5.684342e-13
Product_state fixed-point CI iteration converged after 4 cycles
Entering product-state fixed-point CI iteration
Cycle 0: max grad = 1.364572e-03 ; sigma = 0.000000e+00
Cycle 1: max grad = 2.696320e-14 ; sigma = 4.635324e-03
Cycle 2: max grad = 3.145707e-14 ; sigma = 5.684342e-14
Product_state fixed-point CI iteration converged after 2 cycles
Entering product-state fixed-point CI iteration
Cycle 0: max grad = 3.754842e-03 ; sigma = 0.000000e+00
Cycle 1: max grad = 2.990640e-04 ; sigma = 1.401026e-02
Cycle 2: max grad = 3.292346e-07 ; sigma = 2.351716e-06
Cycle 3: max grad = 2.770832e-10 ; sigma = 2.955858e-12
Product_state fixed-point CI iteration converged after 3 cycles
Entering product-state fixed-point CI iteration
Cycle 0: max grad = 2.509745e-03 ; sigma = 0.000000e+00
Cycle 1: max grad = 8.078260e-05 ; sigma = 1.397852e-02
Cycle 2: max grad = 5.866200e-08 ; sigma = 1.054436e-07
Cycle 3: max grad = 2.773302e-10 ; sigma = 1.136868e-13
Product_state fixed-point CI iteration converged after 3 cycles
Entering product-state fixed-point CI iteration
Cycle 0: max grad = 9.477517e-03 ; sigma = 0.000000e+00
Cycle 1: max grad = 7.255663e-05 ; sigma = 1.470371e-02
Cycle 2: max grad = 2.090308e-06 ; sigma = 1.116524e-06
Cycle 3: max grad = 1.363645e-08 ; sigma = 4.267804e-10
Cycle 4: max grad = 8.026859e-10 ; sigma = 3.410605e-13
Product_state fixed-point CI iteration converged after 4 cycles
Entering product-state fixed-point CI iteration
Cycle 0: max grad = 7.660031e-04 ; sigma = 0.000000e+00
Cycle 1: max grad = 1.271057e-14 ; sigma = 4.402305e-03
Cycle 2: max grad = 1.271057e-14 ; sigma = 1.136868e-13
Product_state fixed-point CI iteration converged after 2 cycles
Entering product-state fixed-point CI iteration
Cycle 0: max grad = 1.995521e-02 ; sigma = 0.000000e+00
Cycle 1: max grad = 9.106203e-05 ; sigma = 2.293170e-02
Cycle 2: max grad = 8.473376e-08 ; sigma = 1.197536e-07
Cycle 3: max grad = 1.383531e-10 ; sigma = 4.547474e-13
Product_state fixed-point CI iteration converged after 3 cycles
Entering product-state fixed-point CI iteration
Cycle 0: max grad = 1.911062e-02 ; sigma = 0.000000e+00
Cycle 1: max grad = 2.317204e-04 ; sigma = 2.139268e-02
Cycle 2: max grad = 2.490766e-07 ; sigma = 1.434456e-06
Cycle 3: max grad = 2.606555e-10 ; sigma = 2.046363e-12
Product_state fixed-point CI iteration converged after 3 cycles
Entering product-state fixed-point CI iteration
Cycle 0: max grad = 3.755822e-03 ; sigma = 0.000000e+00
Cycle 1: max grad = 2.882384e-04 ; sigma = 1.389553e-02
Cycle 2: max grad = 3.361454e-07 ; sigma = 2.184898e-06
Cycle 3: max grad = 2.347633e-10 ; sigma = 2.728484e-12
Product_state fixed-point CI iteration converged after 3 cycles
Entering product-state fixed-point CI iteration
Cycle 0: max grad = 2.510381e-03 ; sigma = 0.000000e+00
Cycle 1: max grad = 4.754481e-05 ; sigma = 1.393578e-02
Cycle 2: max grad = 3.821844e-08 ; sigma = 4.497588e-08
Cycle 3: max grad = 1.962403e-10 ; sigma = 1.136868e-13
Product_state fixed-point CI iteration converged after 3 cycles
Entering product-state fixed-point CI iteration
Cycle 0: max grad = 9.209298e-03 ; sigma = 0.000000e+00
Cycle 1: max grad = 1.668673e-04 ; sigma = 1.388578e-02
Cycle 2: max grad = 2.449827e-06 ; sigma = 3.983173e-06
Cycle 3: max grad = 5.966469e-09 ; sigma = 1.431317e-10
Cycle 4: max grad = 8.241585e-11 ; sigma = 1.136868e-13
Product_state fixed-point CI iteration converged after 4 cycles
Entering product-state fixed-point CI iteration
Cycle 0: max grad = 1.493256e-03 ; sigma = 0.000000e+00
Cycle 1: max grad = 3.813172e-14 ; sigma = 4.802884e-03
Cycle 2: max grad = 1.906586e-14 ; sigma = 1.705303e-13
Product_state fixed-point CI iteration converged after 2 cycles
Entering product-state fixed-point CI iteration
Cycle 0: max grad = 9.475283e-03 ; sigma = 0.000000e+00
Cycle 1: max grad = 6.643666e-05 ; sigma = 1.469609e-02
Cycle 2: max grad = 1.888935e-06 ; sigma = 1.027642e-06
Cycle 3: max grad = 1.134247e-08 ; sigma = 3.348077e-10
Cycle 4: max grad = 6.184564e-10 ; sigma = 1.136868e-13
Product_state fixed-point CI iteration converged after 4 cycles
Entering product-state fixed-point CI iteration
Cycle 0: max grad = 7.421358e-04 ; sigma = 0.000000e+00
Cycle 1: max grad = 3.813172e-14 ; sigma = 4.488545e-03
Cycle 2: max grad = 5.719759e-14 ; sigma = 5.684342e-14
Product_state fixed-point CI iteration converged after 2 cycles
Entering product-state fixed-point CI iteration
Cycle 0: max grad = 1.997405e-02 ; sigma = 0.000000e+00
Cycle 1: max grad = 6.321613e-05 ; sigma = 2.280069e-02
Cycle 2: max grad = 8.956648e-08 ; sigma = 9.508256e-08
Cycle 3: max grad = 1.134310e-10 ; sigma = 1.136868e-13
Product_state fixed-point CI iteration converged after 3 cycles
Entering product-state fixed-point CI iteration
Cycle 0: max grad = 1.912578e-02 ; sigma = 0.000000e+00
Cycle 1: max grad = 2.439098e-04 ; sigma = 2.119811e-02
Cycle 2: max grad = 2.625453e-07 ; sigma = 1.589944e-06
Cycle 3: max grad = 2.265779e-10 ; sigma = 2.046363e-12
Product_state fixed-point CI iteration converged after 3 cycles
Entering product-state fixed-point CI iteration
Cycle 0: max grad = 3.756803e-03 ; sigma = 0.000000e+00
Cycle 1: max grad = 2.773920e-04 ; sigma = 1.394477e-02
Cycle 2: max grad = 3.410037e-07 ; sigma = 2.023886e-06
Cycle 3: max grad = 2.138734e-10 ; sigma = 2.273737e-12
Product_state fixed-point CI iteration converged after 3 cycles
Entering product-state fixed-point CI iteration
Cycle 0: max grad = 2.511018e-03 ; sigma = 0.000000e+00
Cycle 1: max grad = 4.753311e-05 ; sigma = 1.399423e-02
Cycle 2: max grad = 3.727227e-08 ; sigma = 4.494564e-08
Cycle 3: max grad = 1.884166e-10 ; sigma = 2.273737e-13
Product_state fixed-point CI iteration converged after 3 cycles
Entering product-state fixed-point CI iteration
Cycle 0: max grad = 9.209341e-03 ; sigma = 0.000000e+00
Cycle 1: max grad = 1.777801e-04 ; sigma = 1.390440e-02
Cycle 2: max grad = 2.975283e-06 ; sigma = 4.500729e-06
Cycle 3: max grad = 7.751673e-09 ; sigma = 1.923581e-10
Cycle 4: max grad = 1.276277e-10 ; sigma = 1.136868e-13
Product_state fixed-point CI iteration converged after 4 cycles
Entering product-state fixed-point CI iteration
Cycle 0: max grad = 1.492889e-03 ; sigma = 0.000000e+00
Cycle 1: max grad = 2.542115e-14 ; sigma = 4.868652e-03
Cycle 2: max grad = 2.542115e-14 ; sigma = 5.684342e-14
Product_state fixed-point CI iteration converged after 2 cycles
Entering product-state fixed-point CI iteration
Cycle 0: max grad = 9.473049e-03 ; sigma = 0.000000e+00
Cycle 1: max grad = 6.028918e-05 ; sigma = 1.468848e-02
Cycle 2: max grad = 1.743798e-06 ; sigma = 9.654335e-07
Cycle 3: max grad = 9.691285e-09 ; sigma = 2.763727e-10
Cycle 4: max grad = 5.010179e-10 ; sigma = 2.273737e-13
Product_state fixed-point CI iteration converged after 4 cycles
Entering product-state fixed-point CI iteration
Cycle 0: max grad = 7.437136e-04 ; sigma = 0.000000e+00
Cycle 1: max grad = 6.355288e-15 ; sigma = 4.461522e-03
Cycle 2: max grad = 6.355288e-15 ; sigma = 5.684342e-14
Product_state fixed-point CI iteration converged after 2 cycles
Entering product-state fixed-point CI iteration
Cycle 0: max grad = 1.997865e-02 ; sigma = 0.000000e+00
Cycle 1: max grad = 6.323824e-05 ; sigma = 2.275212e-02
Cycle 2: max grad = 8.948845e-08 ; sigma = 9.511666e-08
Cycle 3: max grad = 1.145486e-10 ; sigma = 2.273737e-13
Product_state fixed-point CI iteration converged after 3 cycles
Entering product-state fixed-point CI iteration
Cycle 0: max grad = 1.912410e-02 ; sigma = 0.000000e+00
Cycle 1: max grad = 2.561003e-04 ; sigma = 2.115980e-02
Cycle 2: max grad = 2.887358e-07 ; sigma = 1.753517e-06
Cycle 3: max grad = 2.115996e-10 ; sigma = 2.387424e-12
Product_state fixed-point CI iteration converged after 3 cycles
Entering product-state fixed-point CI iteration
Cycle 0: max grad = 3.757784e-03 ; sigma = 0.000000e+00
Cycle 1: max grad = 2.665411e-04 ; sigma = 1.415790e-02
Cycle 2: max grad = 3.439386e-07 ; sigma = 1.868948e-06
Cycle 3: max grad = 2.113438e-10 ; sigma = 2.046363e-12
Product_state fixed-point CI iteration converged after 3 cycles
Entering product-state fixed-point CI iteration
Cycle 0: max grad = 2.511654e-03 ; sigma = 0.000000e+00
Cycle 1: max grad = 8.076715e-05 ; sigma = 1.415386e-02
Cycle 2: max grad = 5.861479e-08 ; sigma = 1.052672e-07
Cycle 3: max grad = 2.431923e-10 ; sigma = 3.410605e-13
Product_state fixed-point CI iteration converged after 3 cycles
Entering product-state fixed-point CI iteration
Cycle 0: max grad = 9.209384e-03 ; sigma = 0.000000e+00
Cycle 1: max grad = 1.879551e-04 ; sigma = 1.392302e-02
Cycle 2: max grad = 3.506226e-06 ; sigma = 5.022444e-06
Cycle 3: max grad = 9.756010e-09 ; sigma = 2.544311e-10
Cycle 4: max grad = 1.800302e-10 ; sigma = 1.136868e-13
Product_state fixed-point CI iteration converged after 4 cycles
Entering product-state fixed-point CI iteration
Cycle 0: max grad = 1.460596e-03 ; sigma = 0.000000e+00
Cycle 1: max grad = 1.271057e-14 ; sigma = 4.848960e-03
Cycle 2: max grad = 1.906586e-14 ; sigma = 1.136868e-13
Product_state fixed-point CI iteration converged after 2 cycles
Entering product-state fixed-point CI iteration
Cycle 0: max grad = 9.470815e-03 ; sigma = 0.000000e+00
Cycle 1: max grad = 5.411856e-05 ; sigma = 1.468088e-02
Cycle 2: max grad = 1.643849e-06 ; sigma = 9.257299e-07
Cycle 3: max grad = 8.538565e-09 ; sigma = 2.401066e-10
Cycle 4: max grad = 4.275762e-10 ; sigma = 1.136868e-13
Product_state fixed-point CI iteration converged after 4 cycles
Entering product-state fixed-point CI iteration
Cycle 0: max grad = 7.707365e-04 ; sigma = 0.000000e+00
Cycle 1: max grad = 5.084230e-14 ; sigma = 4.321237e-03
Cycle 2: max grad = 5.084230e-14 ; sigma = 5.684342e-14
Product_state fixed-point CI iteration converged after 2 cycles
Entering product-state fixed-point CI iteration
Cycle 0: max grad = 1.996901e-02 ; sigma = 0.000000e+00
Cycle 1: max grad = 9.125309e-05 ; sigma = 2.278600e-02
Cycle 2: max grad = 8.451364e-08 ; sigma = 1.203603e-07
Cycle 3: max grad = 1.409164e-10 ; sigma = 1.136868e-13
Product_state fixed-point CI iteration converged after 3 cycles
Entering product-state fixed-point CI iteration
Cycle 0: max grad = 1.910559e-02 ; sigma = 0.000000e+00
Cycle 1: max grad = 2.682763e-04 ; sigma = 2.127786e-02
Cycle 2: max grad = 3.161281e-07 ; sigma = 1.924962e-06
Cycle 3: max grad = 2.197851e-10 ; sigma = 1.932676e-12
Product_state fixed-point CI iteration converged after 3 cycles
Entering product-state fixed-point CI iteration
Cycle 0: max grad = 9.209427e-03 ; sigma = 0.000000e+00
Cycle 1: max grad = 1.971433e-04 ; sigma = 1.394164e-02
Cycle 2: max grad = 4.036619e-06 ; sigma = 5.530260e-06
Cycle 3: max grad = 1.194584e-08 ; sigma = 3.278728e-10
Cycle 4: max grad = 2.422595e-10 ; sigma = 1.136868e-13
Product_state fixed-point CI iteration converged after 4 cycles
Entering product-state fixed-point CI iteration
Cycle 0: max grad = 1.396376e-03 ; sigma = 0.000000e+00
Cycle 1: max grad = 1.271057e-14 ; sigma = 4.743543e-03
Cycle 2: max grad = 2.391953e-15 ; sigma = 5.684342e-14
Product_state fixed-point CI iteration converged after 2 cycles
Entering product-state fixed-point CI iteration
Cycle 0: max grad = 2.508285e-03 ; sigma = 0.000000e+00
Cycle 1: max grad = 4.754250e-05 ; sigma = 1.393578e-02
Cycle 2: max grad = 4.299715e-08 ; sigma = 4.497235e-08
Cycle 3: max grad = 2.207778e-10 ; sigma = 3.410605e-13
Product_state fixed-point CI iteration converged after 3 cycles
Entering product-state fixed-point CI iteration
Cycle 0: max grad = 7.421358e-04 ; sigma = 0.000000e+00
Cycle 1: max grad = 3.666277e-15 ; sigma = 4.488545e-03
Cycle 2: max grad = 1.655573e-15 ; sigma = 0.000000e+00
Product_state fixed-point CI iteration converged after 2 cycles
Entering product-state fixed-point CI iteration
Cycle 0: max grad = 1.996025e-02 ; sigma = 0.000000e+00
Cycle 1: max grad = 6.316490e-05 ; sigma = 2.294645e-02
Cycle 2: max grad = 8.973022e-08 ; sigma = 9.493112e-08
Cycle 3: max grad = 1.114037e-10 ; sigma = 1.136868e-13
Product_state fixed-point CI iteration converged after 3 cycles
Entering product-state fixed-point CI iteration
Cycle 0: max grad = 2.509558e-03 ; sigma = 0.000000e+00
Cycle 1: max grad = 4.375945e-05 ; sigma = 1.400209e-02
Cycle 2: max grad = 3.365212e-08 ; sigma = 2.580089e-08
Cycle 3: max grad = 1.740597e-10 ; sigma = 1.136868e-13
Product_state fixed-point CI iteration converged after 3 cycles
Entering product-state fixed-point CI iteration
Cycle 0: max grad = 1.557598e-03 ; sigma = 0.000000e+00
Cycle 1: max grad = 3.245017e-15 ; sigma = 4.887580e-03
Cycle 2: max grad = 1.776357e-15 ; sigma = 5.684342e-14
Product_state fixed-point CI iteration converged after 2 cycles
Entering product-state fixed-point CI iteration
Cycle 0: max grad = 7.362837e-04 ; sigma = 0.000000e+00
Cycle 1: max grad = 1.330519e-15 ; sigma = 4.481262e-03
Cycle 2: max grad = 3.552714e-15 ; sigma = 1.136868e-13
Product_state fixed-point CI iteration converged after 2 cycles
Entering product-state fixed-point CI iteration
Cycle 0: max grad = 1.997657e-02 ; sigma = 0.000000e+00
Cycle 1: max grad = 6.411143e-05 ; sigma = 2.280804e-02
Cycle 2: max grad = 9.208344e-08 ; sigma = 9.775783e-08
Cycle 3: max grad = 1.296303e-10 ; sigma = 1.136868e-13
Product_state fixed-point CI iteration converged after 3 cycles
Entering product-state fixed-point CI iteration
Cycle 0: max grad = 2.510830e-03 ; sigma = 0.000000e+00
Cycle 1: max grad = 4.749575e-05 ; sigma = 1.416960e-02
Cycle 2: max grad = 3.722546e-08 ; sigma = 4.485094e-08
Cycle 3: max grad = 1.858853e-10 ; sigma = 1.136868e-13
Product_state fixed-point CI iteration converged after 3 cycles
Entering product-state fixed-point CI iteration
Cycle 0: max grad = 1.525060e-03 ; sigma = 0.000000e+00
Cycle 1: max grad = 4.216029e-15 ; sigma = 4.910668e-03
Cycle 2: max grad = 7.173895e-15 ; sigma = 1.136868e-13
Product_state fixed-point CI iteration converged after 2 cycles
Entering product-state fixed-point CI iteration
Cycle 0: max grad = 7.558767e-04 ; sigma = 0.000000e+00
Cycle 1: max grad = 4.343097e-15 ; sigma = 4.360715e-03
Cycle 2: max grad = 3.552714e-15 ; sigma = 5.684342e-14
Product_state fixed-point CI iteration converged after 2 cycles
Entering product-state fixed-point CI iteration
Cycle 0: max grad = 1.997865e-02 ; sigma = 0.000000e+00
Cycle 1: max grad = 6.325334e-05 ; sigma = 2.275212e-02
Cycle 2: max grad = 8.941910e-08 ; sigma = 9.506800e-08
Cycle 3: max grad = 1.158867e-10 ; sigma = 1.136868e-13
Product_state fixed-point CI iteration converged after 3 cycles
Entering product-state fixed-point CI iteration
Cycle 0: max grad = 1.460596e-03 ; sigma = 0.000000e+00
Cycle 1: max grad = 3.821923e-15 ; sigma = 4.848960e-03
Cycle 2: max grad = 2.297560e-15 ; sigma = 5.684342e-14
Product_state fixed-point CI iteration converged after 2 cycles
Printing a maximum of 100 state energies; increase self.verbose to see them all
LASSCF state-average energy = -4992.23193779053
LASSCF state 0 energy = -4992.23193779053
LASSCF state 1 energy = -4992.23227498731
LASSCF state 2 energy = -4992.23255040352
LASSCF state 3 energy = -4992.23255587738
LASSCF state 4 energy = -4992.2322914089
LASSCF state 5 energy = -4992.23218738253
LASSCF state 6 energy = -4992.23259503297
LASSCF state 7 energy = -4992.23273274107
LASSCF state 8 energy = -4992.23260050683
LASSCF state 9 energy = -4992.23219833025
LASSCF state 10 energy = -4992.23247767522
LASSCF state 11 energy = -4992.23274761756
LASSCF state 12 energy = -4992.23274761756
LASSCF state 13 energy = -4992.23247767522
LASSCF state 14 energy = -4992.23193779053
LASSCF state 15 energy = -4992.23219833025
LASSCF state 16 energy = -4992.23260050683
LASSCF state 17 energy = -4992.23273274107
LASSCF state 18 energy = -4992.23259503297
LASSCF state 19 energy = -4992.23218738253
LASSCF state 20 energy = -4992.2322914089
LASSCF state 21 energy = -4992.23255587738
LASSCF state 22 energy = -4992.23255040352
LASSCF state 23 energy = -4992.23227498731
LASSCF state 24 energy = -4991.66618109952
LASSCF state 25 energy = -4739.53744675011
LASSCF state 26 energy = -4991.14421097477
LASSCF state 27 energy = -4991.37061648836
LASSCF state 28 energy = -4991.64896541432
LASSCF state 29 energy = -4739.5191664744
LASSCF state 30 energy = -4991.13783320959
LASSCF state 31 energy = -4991.34965959197
LASSCF state 32 energy = -4739.53772674696
LASSCF state 33 energy = -4991.13783708952
LASSCF state 34 energy = -4991.14451220451
LASSCF state 35 energy = -4991.37074051458
LASSCF state 36 energy = -4991.66640709988
LASSCF state 37 energy = -4739.53764053178
LASSCF state 38 energy = -4991.6494153857
LASSCF state 39 energy = -4739.51955464395
LASSCF state 40 energy = -4991.34960639186
LASSCF state 41 energy = -4739.53797863797
LASSCF state 42 energy = -4739.51953940143
LASSCF state 43 energy = -4991.13810184502
LASSCF state 44 energy = -4991.144585655
LASSCF state 45 energy = -4991.37073320103
LASSCF state 46 energy = -4991.66675597429
LASSCF state 47 energy = -4739.53801226326
LASSCF state 48 energy = -4991.64960946838
LASSCF state 49 energy = -4739.51976876501
LASSCF state 50 energy = -4991.34975816046
LASSCF state 51 energy = -4739.53795547927
LASSCF state 52 energy = -4739.51962159212
LASSCF state 53 energy = -4991.13820204542
LASSCF state 54 energy = -4991.14449424496
LASSCF state 55 energy = -4991.37057741073
LASSCF state 56 energy = -4991.66682935127
LASSCF state 57 energy = -4739.53810801389
LASSCF state 58 energy = -4991.64952887264
LASSCF state 59 energy = -4739.51970820841
LASSCF state 60 energy = -4991.34976202743
LASSCF state 61 energy = -4739.51942910519
LASSCF state 62 energy = -4991.13813758738
LASSCF state 63 energy = -4991.14423806831
LASSCF state 64 energy = -4991.66662710443
LASSCF state 65 energy = -4739.53792805051
LASSCF state 66 energy = -4991.64917359846
LASSCF state 67 energy = -4739.51937297416
LASSCF state 68 energy = -4991.14444260395
LASSCF state 69 energy = -4991.37076241213
LASSCF state 70 energy = -4991.64925599628
LASSCF state 71 energy = -4739.51943033494
LASSCF state 72 energy = -4991.34968135445
LASSCF state 73 energy = -4991.13814089214
LASSCF state 74 energy = -4991.14463189574
LASSCF state 75 energy = -4991.3708700876
LASSCF state 76 energy = -4991.66666516769
LASSCF state 77 energy = -4739.53793895496
LASSCF state 78 energy = -4991.64959536856
LASSCF state 79 energy = -4739.51977638632
LASSCF state 80 energy = -4991.34986809999
LASSCF state 81 energy = -4991.13828403719
LASSCF state 82 energy = -4991.14465637491
LASSCF state 83 energy = -4991.37082931642
LASSCF state 84 energy = -4991.6668735484
LASSCF state 85 energy = -4739.53815502142
LASSCF state 86 energy = -4991.64966006232
LASSCF state 87 energy = -4739.51984776002
LASSCF state 88 energy = -4991.34990698997
LASSCF state 89 energy = -4991.13826255121
LASSCF state 90 energy = -4991.1445160271
LASSCF state 91 energy = -4991.37064013605
LASSCF state 92 energy = -4991.66680592119
LASSCF state 93 energy = -4739.53809478431
LASSCF state 94 energy = -4991.64945007757
LASSCF state 95 energy = -4739.51964445603
LASSCF state 96 energy = -4991.34979796472
LASSCF state 97 energy = -4991.13807642942
LASSCF state 98 energy = -4991.14421097477
LASSCF state 99 energy = -4991.66646237367
LASSCF state 100 energy = -4739.53775845857
LASSCF state 101 energy = -4991.64896541432
LASSCF state 102 energy = -4739.5191664744
LASSCF state 103 energy = -4991.13807642942
LASSCF state 104 energy = -4991.1445160271
LASSCF state 105 energy = -4991.37083906584
LASSCF state 106 energy = -4991.66646237367
LASSCF state 107 energy = -4739.53775845857
LASSCF state 108 energy = -4991.64945007757
LASSCF state 109 energy = -4739.51964445603
LASSCF state 110 energy = -4991.34988138798
LASSCF state 111 energy = -4991.13826255121
LASSCF state 112 energy = -4991.14465637491
LASSCF state 113 energy = -4991.37091328506
LASSCF state 114 energy = -4991.66680592119
LASSCF state 115 energy = -4739.53809478431
LASSCF state 116 energy = -4991.64966006232
LASSCF state 117 energy = -4739.51984776002
LASSCF state 118 energy = -4991.34995533604
LASSCF state 119 energy = -4991.13828403719
LASSCF state 120 energy = -4991.14463189574
LASSCF state 121 energy = -4991.37083906584
LASSCF state 122 energy = -4991.6668735484
LASSCF state 123 energy = -4739.53815502142
LASSCF state 124 energy = -4991.64959536856
LASSCF state 125 energy = -4739.51977638632
LASSCF state 126 energy = -4991.34988138798
LASSCF state 127 energy = -4991.13814089214
LASSCF state 128 energy = -4991.14444260395
LASSCF state 129 energy = -4991.37061648836
LASSCF state 130 energy = -4991.66666516769
LASSCF state 131 energy = -4739.53793895496
LASSCF state 132 energy = -4991.64925599628
LASSCF state 133 energy = -4739.51943033494
LASSCF state 134 energy = -4991.34965959197
LASSCF state 135 energy = -4991.13783320959
LASSCF state 136 energy = -4991.66618109952
LASSCF state 137 energy = -4739.53744675011
LASSCF state 138 energy = -4991.14423806831
LASSCF state 139 energy = -4991.37064013605
LASSCF state 140 energy = -4991.64917359846
LASSCF state 141 energy = -4739.51937297416
LASSCF state 142 energy = -4991.34979796472
LASSCF state 143 energy = -4991.13813758738
LASSCF state 144 energy = -4991.14449424496
LASSCF state 145 energy = -4991.37082931642
LASSCF state 146 energy = -4991.66662710443
LASSCF state 147 energy = -4739.53792805051
LASSCF state 148 energy = -4991.64952887264
LASSCF state 149 energy = -4739.51970820841
LASSCF state 150 energy = -4991.34990698997
LASSCF state 151 energy = -4991.13820204542
LASSCF state 152 energy = -4991.144585655
LASSCF state 153 energy = -4991.3708700876
LASSCF state 154 energy = -4991.66682935127
LASSCF state 155 energy = -4739.53810801389
LASSCF state 156 energy = -4991.64960946838
LASSCF state 157 energy = -4739.51976876501
LASSCF state 158 energy = -4991.34986809999
LASSCF state 159 energy = -4991.13810184502
LASSCF state 160 energy = -4991.14451220451
LASSCF state 161 energy = -4991.37076241213
LASSCF state 162 energy = -4991.66675597429
LASSCF state 163 energy = -4739.53801226326
LASSCF state 164 energy = -4991.6494153857
LASSCF state 165 energy = -4739.51955464395
LASSCF state 166 energy = -4991.34968135445
LASSCF state 167 energy = -4991.13783708952
LASSCF state 168 energy = -4991.66640709988
LASSCF state 169 energy = -4739.53764053178
LASSCF state 170 energy = -4991.37057741073
LASSCF state 171 energy = -4739.51942910519
LASSCF state 172 energy = -4991.34976202743
LASSCF state 173 energy = -4991.37073320103
LASSCF state 174 energy = -4739.53795547927
LASSCF state 175 energy = -4739.51962159212
LASSCF state 176 energy = -4991.34975816046
LASSCF state 177 energy = -4991.37074051458
LASSCF state 178 energy = -4739.53797863797
LASSCF state 179 energy = -4739.51953940143
LASSCF state 180 energy = -4991.34960639186
LASSCF state 181 energy = -4739.53772674696
Entering product-state fixed-point CI iteration
Cycle 0: max grad = 3.812076e+03 ; sigma = 0.000000e+00
Cycle 1: max grad = 1.856498e-13 ; sigma = 0.000000e+00
Product_state fixed-point CI iteration converged after 1 cycles
Entering product-state fixed-point CI iteration
Cycle 0: max grad = 4.609278e+03 ; sigma = 0.000000e+00
Cycle 1: max grad = 2.957634e-13 ; sigma = 2.273737e-13
Product_state fixed-point CI iteration converged after 1 cycles
Entering product-state fixed-point CI iteration
Cycle 0: max grad = 4.317330e+03 ; sigma = 0.000000e+00
Cycle 1: max grad = 1.652012e-13 ; sigma = 2.273737e-13
Product_state fixed-point CI iteration converged after 1 cycles
Entering product-state fixed-point CI iteration
Cycle 0: max grad = 3.442270e+03 ; sigma = 0.000000e+00
Cycle 1: max grad = 7.105427e-14 ; sigma = 0.000000e+00
Product_state fixed-point CI iteration converged after 1 cycles
Entering product-state fixed-point CI iteration
Cycle 0: max grad = 3.580402e+03 ; sigma = 0.000000e+00
Cycle 1: max grad = 1.136868e-13 ; sigma = 1.136868e-13
Product_state fixed-point CI iteration converged after 1 cycles
Entering product-state fixed-point CI iteration
Cycle 0: max grad = 4.596232e+03 ; sigma = 0.000000e+00
Cycle 1: max grad = 2.267075e-13 ; sigma = 1.136868e-13
Product_state fixed-point CI iteration converged after 1 cycles
Entering product-state fixed-point CI iteration
Cycle 0: max grad = 4.407235e+03 ; sigma = 0.000000e+00
Cycle 1: max grad = 8.526513e-14 ; sigma = 2.273737e-13
Product_state fixed-point CI iteration converged after 1 cycles
Entering product-state fixed-point CI iteration
Cycle 0: max grad = 3.811427e+03 ; sigma = 0.000000e+00
Cycle 1: max grad = 1.421085e-13 ; sigma = 1.136868e-13
Product_state fixed-point CI iteration converged after 1 cycles
Entering product-state fixed-point CI iteration
Cycle 0: max grad = 3.542365e+03 ; sigma = 0.000000e+00
Cycle 1: max grad = 1.190159e-13 ; sigma = 2.273737e-13
Product_state fixed-point CI iteration converged after 1 cycles
Entering product-state fixed-point CI iteration
Cycle 0: max grad = 3.630107e+03 ; sigma = 0.000000e+00
Cycle 1: max grad = 1.190159e-13 ; sigma = 1.136868e-13
Product_state fixed-point CI iteration converged after 1 cycles
Entering product-state fixed-point CI iteration
Cycle 0: max grad = 3.812076e+03 ; sigma = 0.000000e+00
Cycle 1: max grad = 1.856498e-13 ; sigma = 1.136868e-13
Product_state fixed-point CI iteration converged after 1 cycles
Entering product-state fixed-point CI iteration
Cycle 0: max grad = 3.812076e+03 ; sigma = 0.000000e+00
Cycle 1: max grad = 9.717608e-14 ; sigma = 1.136868e-13
Product_state fixed-point CI iteration converged after 1 cycles
Entering product-state fixed-point CI iteration
Cycle 0: max grad = 3.812076e+03 ; sigma = 0.000000e+00
Cycle 1: max grad = 1.276343e-13 ; sigma = 0.000000e+00
Product_state fixed-point CI iteration converged after 1 cycles
Entering product-state fixed-point CI iteration
Cycle 0: max grad = 3.812076e+03 ; sigma = 0.000000e+00
Cycle 1: max grad = 1.160311e-13 ; sigma = 0.000000e+00
Product_state fixed-point CI iteration converged after 1 cycles
Entering product-state fixed-point CI iteration
Cycle 0: max grad = 3.812076e+03 ; sigma = 0.000000e+00
Cycle 1: max grad = 5.583999e-14 ; sigma = 0.000000e+00
Product_state fixed-point CI iteration converged after 1 cycles
Entering product-state fixed-point CI iteration
Cycle 0: max grad = 3.630107e+03 ; sigma = 0.000000e+00
Cycle 1: max grad = 8.526513e-14 ; sigma = 1.136868e-13
Product_state fixed-point CI iteration converged after 1 cycles
Entering product-state fixed-point CI iteration
Cycle 0: max grad = 3.542365e+03 ; sigma = 0.000000e+00
Cycle 1: max grad = 1.652012e-13 ; sigma = 1.136868e-13
Product_state fixed-point CI iteration converged after 1 cycles
Entering product-state fixed-point CI iteration
Cycle 0: max grad = 3.811427e+03 ; sigma = 0.000000e+00
Cycle 1: max grad = 9.947598e-14 ; sigma = 0.000000e+00
Product_state fixed-point CI iteration converged after 1 cycles
Entering product-state fixed-point CI iteration
Cycle 0: max grad = 4.407235e+03 ; sigma = 0.000000e+00
Cycle 1: max grad = 1.290079e-13 ; sigma = 1.136868e-13
Product_state fixed-point CI iteration converged after 1 cycles
Entering product-state fixed-point CI iteration
Cycle 0: max grad = 4.596232e+03 ; sigma = 0.000000e+00
Cycle 1: max grad = 1.421085e-13 ; sigma = 1.136868e-13
Product_state fixed-point CI iteration converged after 1 cycles
Entering product-state fixed-point CI iteration
Cycle 0: max grad = 3.580402e+03 ; sigma = 0.000000e+00
Cycle 1: max grad = 1.243450e-13 ; sigma = 1.136868e-13
Product_state fixed-point CI iteration converged after 1 cycles
Entering product-state fixed-point CI iteration
Cycle 0: max grad = 3.442270e+03 ; sigma = 0.000000e+00
Cycle 1: max grad = 4.618528e-14 ; sigma = 0.000000e+00
Product_state fixed-point CI iteration converged after 1 cycles
Entering product-state fixed-point CI iteration
[...]
 220:  5.065e-04  5.018e-04 -3.715e-04 -5.018e-04  5.015e-04 -5.011e-04  5.005e-04 -5.008e-04
 020:  4.150e-04  4.211e-04 -5.445e-04 -4.212e-04  4.216e-04 -4.222e-04  4.230e-04 -4.243e-04
 100:  3.786e-04  3.730e-04 -2.237e-04 -3.729e-04  3.724e-04 -3.718e-04  3.709e-04 -3.705e-04
 130: -3.138e-04 -2.880e-04 -3.217e-04  2.878e-04 -2.862e-04  2.835e-04 -2.801e-04  2.749e-04
 210: -2.006e-04 -2.113e-04  4.360e-04  2.113e-04 -2.120e-04  2.130e-04 -2.144e-04  2.165e-04
 010:  2.078e-04  2.096e-04 -2.411e-04 -2.096e-04  2.097e-04 -2.099e-04  2.101e-04 -2.107e-04
 300: -1.419e-04 -1.320e-04 -7.482e-05  1.321e-04 -1.316e-04  1.306e-04 -1.293e-04  1.280e-04
Remaining 7 ENVs in rootspace 167 have combined average weight = 9.165587e-09
Leading 10 CSFs of 5 local primitive basis functions for fragment 0 in rootspace 167:
State 0/5           State 1/5           State 2/5           State 3/5           
2uuu2 : -9.17e-01   uuu22 :  9.95e-01   uu2u2 : -8.23e-01   u2uu2 : -8.32e-01   
uu2u2 : -3.54e-01   uu2u2 : -9.26e-02   u2uu2 :  5.23e-01   uu2u2 : -4.35e-01   
u2uu2 : -1.81e-01   u2uu2 : -4.24e-02   2uuu2 :  2.17e-01   2uuu2 :  3.35e-01   
uuu22 : -2.85e-02   2uuu2 :  1.32e-02   uuu22 : -5.72e-02   uuu22 : -8.04e-02   
u2u2u : -2.11e-06   22uuu : -9.64e-06   u2u2u :  1.28e-05   uu22u :  1.19e-05   
2u2uu : -1.52e-06   2u2uu : -4.62e-06   2u2uu :  8.47e-06   22uuu : -1.02e-05   
uu22u : -1.17e-06   u2u2u : -3.42e-06   uu22u :  6.23e-06   2u2uu : -5.99e-06   
2uu2u :  4.37e-07   uu22u :  3.39e-06   2uu2u : -4.30e-06   u2u2u : -4.66e-06   
22uuu : -1.67e-07   2uu2u : -1.92e-06   22uuu : -3.97e-06   2uu2u :  3.84e-06   
u22uu : -1.11e-07   u22uu : -5.70e-07   u22uu :  3.13e-06   u22uu :  1.39e-06   
State 4/5           
2uu2u : -8.72e-01   
u2u2u : -3.80e-01   
22uuu :  2.41e-01   
2u2uu :  1.80e-01   
uu22u :  5.25e-02   
u22uu :  4.99e-02   
u2uu2 : -3.64e-06   
uu2u2 : -1.96e-06   
2uuu2 :  1.53e-06   
uuu22 : -3.21e-07   
Leading 10 CSFs of 5 local primitive basis functions for fragment 1 in rootspace 167:
State 0/5           State 1/5           State 2/5           State 3/5           
uuuu0 : -8.83e-01   uuu0u : -9.30e-01   uu0uu :  9.30e-01   0uuuu :  9.11e-01   
u0uuu : -4.66e-01   uu0uu :  3.68e-01   uuu0u :  3.68e-01   u0uuu : -3.36e-01   
0uuuu :  5.91e-02   uuuu0 :  1.61e-03   uuuu0 : -5.65e-04   uuuu0 :  2.39e-01   
uuu0u : -1.42e-03   u0uuu : -1.36e-04   0uuuu : -2.30e-04   uuu0u :  5.12e-04   
uu0uu :  1.07e-04   0uuuu : -3.60e-05   u0uuu :  1.32e-04   uu0uu :  2.15e-04   
State 4/5           
u0uuu : -8.18e-01   
0uuuu : -4.08e-01   
uuuu0 :  4.04e-01   
uuu0u :  8.13e-04   
uu0uu : -6.04e-05   
Leading 10 CSFs of 1 local primitive basis functions for fragment 2 in rootspace 167:
State 0/1           
uuuuu :  1.00e+00   
Rootspace 53 with averaged weight 2.951e-06
 Frag    Nelec  2S+1   Ir     <n>  Max(weight)   Entropy
    0    2a+5b     4    A   1.189       0.4345  0.965570
    1    3a+1b     5    A   2.026       0.4790  0.965590
    2    3a+2b     6    A   0.000       1.0000  0.000000
Wave function(s) in rootspace 53 in local primitive basis:
 Fac:  4.598e-03  5.620e-04  1.701e-04  1.381e-04  1.002e-03  2.791e-04  1.010e-03  5.133e-12
 230:  6.339e-01  6.274e-01 -6.626e-01  6.323e-01 -6.264e-01 -6.271e-01  6.247e-01  6.376e-01
 120:  5.031e-01  5.066e-01 -4.877e-01  5.031e-01 -5.071e-01 -5.064e-01  5.081e-01  5.011e-01
 000:  4.480e-01  4.488e-01 -4.434e-01  4.485e-01 -4.489e-01 -4.489e-01  4.490e-01  4.474e-01
 030:  2.776e-01  2.830e-01 -2.506e-01  2.792e-01 -2.838e-01 -2.835e-01  2.853e-01  2.746e-01
 200:  1.692e-01  1.652e-01 -1.851e-01  1.697e-01 -1.646e-01 -1.656e-01  1.635e-01  1.715e-01
 310: -1.425e-01 -1.480e-01  1.172e-01 -1.437e-01  1.487e-01  1.481e-01 -1.501e-01 -1.393e-01
 040:  1.035e-01  1.072e-01 -8.691e-02  1.044e-01 -1.076e-01 -1.072e-01  1.085e-01  1.014e-01
 240: -6.092e-02 -6.029e-02  6.343e-02 -6.100e-02  6.021e-02  6.038e-02 -6.006e-02 -6.130e-02
 110:  5.206e-02  5.328e-02 -4.637e-02  5.240e-02 -5.343e-02 -5.333e-02  5.373e-02  5.136e-02
 320:  3.515e-02  3.312e-02 -4.492e-02  3.442e-02 -3.285e-02 -3.294e-02  3.232e-02  3.607e-02
 330:  1.098e-03  1.077e-03 -1.189e-03  1.093e-03 -1.075e-03 -1.076e-03  1.069e-03  1.104e-03
 220: -5.062e-04 -5.018e-04  5.256e-04 -5.048e-04  5.012e-04  5.015e-04 -5.001e-04 -5.087e-04
 020: -4.149e-04 -4.206e-04  3.868e-04 -4.165e-04  4.214e-04  4.210e-04 -4.229e-04 -4.117e-04
 100: -3.782e-04 -3.730e-04  4.028e-04 -3.758e-04  3.721e-04  3.721e-04 -3.706e-04 -3.850e-04
 130:  3.141e-04  2.902e-04 -4.272e-04  3.071e-04 -2.869e-04 -2.886e-04  2.804e-04  3.267e-04
 010: -2.093e-04 -2.110e-04  2.010e-04 -2.097e-04  2.112e-04  2.110e-04 -2.116e-04 -2.082e-04
 210:  2.009e-04  2.107e-04 -1.561e-04  2.025e-04 -2.121e-04 -2.108e-04  2.147e-04  1.952e-04
 300:  1.446e-04  1.358e-04 -1.817e-04  1.453e-04 -1.344e-04 -1.364e-04  1.320e-04  1.354e-04
Remaining 7 ENVs in rootspace 53 have combined average weight = 7.757162e-09
Leading 10 CSFs of 5 local primitive basis functions for fragment 0 in rootspace 53:
State 0/5           State 1/5           State 2/5           State 3/5           
2uuu2 : -9.17e-01   uuu22 :  9.95e-01   uu2u2 : -8.23e-01   u2uu2 : -8.32e-01   
uu2u2 : -3.54e-01   uu2u2 : -9.26e-02   u2uu2 :  5.23e-01   uu2u2 : -4.35e-01   
u2uu2 : -1.81e-01   u2uu2 : -4.24e-02   2uuu2 :  2.16e-01   2uuu2 :  3.35e-01   
uuu22 : -2.85e-02   2uuu2 :  1.32e-02   uuu22 : -5.72e-02   uuu22 : -8.04e-02   
u2u2u : -2.12e-06   22uuu : -9.64e-06   u2u2u :  1.28e-05   uu22u :  1.19e-05   
2u2uu : -1.48e-06   2u2uu : -4.62e-06   2u2uu :  8.45e-06   22uuu : -1.02e-05   
uu22u : -1.17e-06   u2u2u : -3.44e-06   uu22u :  6.23e-06   2u2uu : -6.01e-06   
2uu2u :  4.41e-07   uu22u :  3.44e-06   2uu2u : -4.30e-06   u2u2u : -4.66e-06   
22uuu : -1.87e-07   2uu2u : -1.92e-06   22uuu : -3.96e-06   2uu2u :  3.84e-06   
u22uu : -9.55e-08   u22uu : -5.66e-07   u22uu :  3.12e-06   u22uu :  1.44e-06   
State 4/5           
2uu2u : -8.72e-01   
u2u2u : -3.80e-01   
22uuu :  2.42e-01   
2u2uu :  1.80e-01   
uu22u :  5.23e-02   
u22uu :  4.99e-02   
u2uu2 : -3.64e-06   
uu2u2 : -1.96e-06   
2uuu2 :  1.53e-06   
uuu22 : -3.24e-07   
Leading 10 CSFs of 5 local primitive basis functions for fragment 1 in rootspace 53:
State 0/5           State 1/5           State 2/5           State 3/5           
uuuu0 : -8.83e-01   uuu0u : -9.30e-01   uu0uu :  9.30e-01   0uuuu :  9.11e-01   
u0uuu : -4.66e-01   uu0uu :  3.68e-01   uuu0u :  3.68e-01   u0uuu : -3.36e-01   
0uuuu :  6.06e-02   uuuu0 :  1.61e-03   uuuu0 : -5.66e-04   uuuu0 :  2.40e-01   
uuu0u : -1.42e-03   u0uuu : -1.35e-04   0uuuu : -2.29e-04   uuu0u :  5.14e-04   
uu0uu :  1.07e-04   0uuuu : -3.67e-05   u0uuu :  1.32e-04   uu0uu :  2.15e-04   
State 4/5           
u0uuu : -8.18e-01   
0uuuu : -4.09e-01   
uuuu0 :  4.04e-01   
uuu0u :  8.12e-04   
uu0uu : -6.00e-05   
Leading 10 CSFs of 1 local primitive basis functions for fragment 2 in rootspace 53:
State 0/1           
uuuuu :  1.00e+00   
Rootspace 151 with averaged weight 2.951e-06
 Frag    Nelec  2S+1   Ir     <n>  Max(weight)   Entropy
    0    5a+2b     4    A   1.181       0.4275  0.971633
    1    1a+3b     5    A   2.023       0.4752  0.971643
    2    2a+3b     6    A   0.000       1.0000  0.000000
Wave function(s) in rootspace 151 in local primitive basis:
 Fac:  4.598e-03  5.620e-04  1.701e-04  1.381e-04  1.002e-03  2.791e-04  1.010e-03  8.801e-13
 230: -6.339e-01 -6.274e-01 -6.626e-01  6.323e-01  6.264e-01 -6.271e-01 -6.247e-01  5.983e-01
 120: -5.031e-01 -5.066e-01 -4.877e-01  5.031e-01  5.071e-01 -5.064e-01 -5.081e-01  5.203e-01
 000: -4.480e-01 -4.488e-01 -4.434e-01  4.485e-01  4.489e-01 -4.489e-01 -4.490e-01  4.516e-01
 030: -2.776e-01 -2.830e-01 -2.506e-01  2.792e-01  2.838e-01 -2.835e-01 -2.853e-01  3.055e-01
 200: -1.692e-01 -1.652e-01 -1.851e-01  1.697e-01  1.646e-01 -1.656e-01 -1.635e-01  1.489e-01
 310:  1.425e-01  1.480e-01  1.172e-01 -1.437e-01 -1.487e-01  1.481e-01  1.501e-01 -1.708e-01
 040: -1.035e-01 -1.072e-01 -8.691e-02  1.044e-01  1.076e-01 -1.072e-01 -1.085e-01  1.222e-01
 240:  6.092e-02  6.029e-02  6.343e-02 -6.100e-02 -6.021e-02  6.038e-02  6.006e-02 -5.768e-02
 110: -5.206e-02 -5.328e-02 -4.637e-02  5.240e-02  5.343e-02 -5.333e-02 -5.373e-02  5.831e-02
 320: -3.515e-02 -3.312e-02 -4.492e-02  3.442e-02  3.285e-02 -3.294e-02 -3.232e-02  3.105e-02
 330: -1.098e-03 -1.077e-03 -1.189e-03  1.093e-03  1.075e-03 -1.076e-03 -1.069e-03  1.016e-03
 220:  5.062e-04  5.018e-04  5.256e-04 -5.048e-04 -5.012e-04  5.015e-04  5.001e-04 -4.812e-04
 020:  4.149e-04  4.206e-04  3.868e-04 -4.165e-04 -4.214e-04  4.210e-04  4.229e-04 -4.439e-04
 100:  3.782e-04  3.730e-04  4.028e-04 -3.758e-04 -3.721e-04  3.721e-04  3.706e-04 -3.498e-04
 130: -3.141e-04 -2.902e-04 -4.272e-04  3.071e-04  2.869e-04 -2.886e-04 -2.804e-04  1.884e-04
 010:  2.093e-04  2.110e-04  2.010e-04 -2.097e-04 -2.112e-04  2.110e-04  2.116e-04 -2.179e-04
 210: -2.009e-04 -2.107e-04 -1.561e-04  2.025e-04  2.121e-04 -2.108e-04 -2.147e-04  2.516e-04
 300: -1.446e-04 -1.358e-04 -1.817e-04  1.453e-04  1.344e-04 -1.364e-04 -1.320e-04  1.019e-04
Remaining 7 ENVs in rootspace 151 have combined average weight = 7.713846e-09
Leading 10 CSFs of 5 local primitive basis functions for fragment 0 in rootspace 151:
State 0/5           State 1/5           State 2/5           State 3/5           
2uuu2 : -9.17e-01   uuu22 :  9.95e-01   uu2u2 : -8.23e-01   u2uu2 : -8.32e-01   
uu2u2 : -3.54e-01   uu2u2 : -9.26e-02   u2uu2 :  5.23e-01   uu2u2 : -4.35e-01   
u2uu2 : -1.81e-01   u2uu2 : -4.24e-02   2uuu2 :  2.16e-01   2uuu2 :  3.35e-01   
uuu22 : -2.85e-02   2uuu2 :  1.32e-02   uuu22 : -5.72e-02   uuu22 : -8.04e-02   
u2u2u : -2.12e-06   22uuu : -9.64e-06   u2u2u :  1.28e-05   uu22u :  1.19e-05   
2u2uu : -1.48e-06   2u2uu : -4.62e-06   2u2uu :  8.45e-06   22uuu : -1.02e-05   
uu22u : -1.17e-06   u2u2u : -3.44e-06   uu22u :  6.23e-06   2u2uu : -6.01e-06   
2uu2u :  4.41e-07   uu22u :  3.44e-06   2uu2u : -4.30e-06   u2u2u : -4.66e-06   
22uuu : -1.87e-07   2uu2u : -1.92e-06   22uuu : -3.96e-06   2uu2u :  3.84e-06   
u22uu : -9.55e-08   u22uu : -5.66e-07   u22uu :  3.12e-06   u22uu :  1.44e-06   
State 4/5           
2uu2u : -8.72e-01   
u2u2u : -3.80e-01   
22uuu :  2.42e-01   
2u2uu :  1.80e-01   
uu22u :  5.23e-02   
u22uu :  4.99e-02   
u2uu2 : -3.64e-06   
uu2u2 : -1.96e-06   
2uuu2 :  1.53e-06   
uuu22 : -3.24e-07   
Leading 10 CSFs of 5 local primitive basis functions for fragment 1 in rootspace 151:
State 0/5           State 1/5           State 2/5           State 3/5           
uuuu0 : -8.83e-01   uuu0u : -9.30e-01   uu0uu :  9.30e-01   0uuuu :  9.11e-01   
u0uuu : -4.66e-01   uu0uu :  3.68e-01   uuu0u :  3.68e-01   u0uuu : -3.36e-01   
0uuuu :  6.06e-02   uuuu0 :  1.61e-03   uuuu0 : -5.66e-04   uuuu0 :  2.40e-01   
uuu0u : -1.42e-03   u0uuu : -1.35e-04   0uuuu : -2.29e-04   uuu0u :  5.14e-04   
uu0uu :  1.07e-04   0uuuu : -3.67e-05   u0uuu :  1.32e-04   uu0uu :  2.15e-04   
State 4/5           
u0uuu : -8.18e-01   
0uuuu : -4.09e-01   
uuuu0 :  4.04e-01   
uuu0u :  8.12e-04   
uu0uu : -6.00e-05   
Leading 10 CSFs of 1 local primitive basis functions for fragment 2 in rootspace 151:
State 0/1           
uuuuu :  1.00e+00   
Rootspace 62 with averaged weight 1.407e-06
 Frag    Nelec  2S+1   Ir     <n>  Max(weight)   Entropy
    0    2a+5b     4    A   1.183       0.4294  0.969288
    1    4a+0b     5    A   2.024       0.4763  0.969317
    2    2a+3b     6    A   0.000       1.0000  0.000000
Wave function(s) in rootspace 62 in local primitive basis:
 Fac:  3.065e-03  2.513e-04  1.844e-04  2.038e-04  6.785e-04  1.004e-03  5.051e-04  9.417e-12
 230: -6.341e-01 -6.281e-01  6.477e-01  6.247e-01  6.277e-01 -6.261e-01  6.249e-01 -6.334e-01
 120: -5.031e-01 -5.062e-01  4.963e-01  5.085e-01  5.064e-01 -5.074e-01  5.081e-01 -5.034e-01
 000: -4.480e-01 -4.488e-01  4.460e-01  4.490e-01  4.488e-01 -4.489e-01  4.490e-01 -4.482e-01
 030: -2.771e-01 -2.821e-01  2.645e-01  2.847e-01  2.826e-01 -2.838e-01  2.848e-01 -2.777e-01
 200: -1.693e-01 -1.659e-01  1.765e-01  1.630e-01  1.657e-01 -1.645e-01  1.636e-01 -1.690e-01
 310:  1.425e-01  1.475e-01 -1.307e-01 -1.504e-01 -1.478e-01  1.491e-01 -1.501e-01  1.430e-01
 040: -1.044e-01 -1.077e-01  9.665e-02  1.096e-01  1.079e-01 -1.088e-01  1.094e-01 -1.047e-01
 240:  5.901e-02  5.848e-02 -6.013e-02 -5.804e-02 -5.848e-02  5.830e-02 -5.818e-02  5.896e-02
 110: -5.208e-02 -5.320e-02  4.944e-02  5.380e-02  5.328e-02 -5.354e-02  5.375e-02 -5.219e-02
 320: -3.515e-02 -3.327e-02  3.979e-02  3.235e-02  3.311e-02 -3.267e-02  3.233e-02 -3.492e-02
 330: -1.101e-03 -1.082e-03  1.144e-03  1.071e-03  1.081e-03 -1.076e-03  1.072e-03 -1.098e-03
 220:  5.068e-04  5.027e-04 -5.162e-04 -5.007e-04 -5.024e-04  5.015e-04 -5.007e-04  5.062e-04
 020:  4.153e-04  4.205e-04 -4.022e-04 -4.233e-04 -4.210e-04  4.223e-04 -4.233e-04  4.159e-04
 100:  3.783e-04  3.734e-04 -3.901e-04 -3.712e-04 -3.728e-04  3.716e-04 -3.707e-04  3.783e-04
 130: -3.145e-04 -2.925e-04  3.678e-04  2.807e-04  2.906e-04 -2.851e-04  2.807e-04 -3.117e-04
 010:  2.072e-04  2.087e-04 -2.034e-04 -2.096e-04 -2.089e-04  2.092e-04 -2.095e-04  2.074e-04
 210: -2.022e-04 -2.111e-04  1.815e-04  2.167e-04  2.117e-04 -2.142e-04  2.160e-04 -2.031e-04
 300: -1.462e-04 -1.384e-04  1.630e-04  1.321e-04  1.381e-04 -1.354e-04  1.335e-04 -1.447e-04
Remaining 7 ENVs in rootspace 62 have combined average weight = 7.073164e-09
Leading 10 CSFs of 5 local primitive basis functions for fragment 0 in rootspace 62:
State 0/5           State 1/5           State 2/5           State 3/5           
2uuu2 : -9.17e-01   uuu22 :  9.95e-01   uu2u2 : -8.23e-01   u2uu2 : -8.32e-01   
uu2u2 : -3.54e-01   uu2u2 : -9.26e-02   u2uu2 :  5.23e-01   uu2u2 : -4.35e-01   
u2uu2 : -1.81e-01   u2uu2 : -4.24e-02   2uuu2 :  2.16e-01   2uuu2 :  3.35e-01   
uuu22 : -2.84e-02   2uuu2 :  1.32e-02   uuu22 : -5.72e-02   uuu22 : -8.04e-02   
u2u2u : -2.12e-06   22uuu : -9.64e-06   u2u2u :  1.28e-05   uu22u :  1.19e-05   
2u2uu : -1.46e-06   2u2uu : -4.62e-06   2u2uu :  8.45e-06   22uuu : -1.02e-05   
uu22u : -1.18e-06   uu22u :  3.47e-06   uu22u :  6.23e-06   2u2uu : -6.02e-06   
2uu2u :  4.43e-07   u2u2u : -3.46e-06   2uu2u : -4.30e-06   u2u2u : -4.65e-06   
22uuu : -1.98e-07   2uu2u : -1.91e-06   22uuu : -3.96e-06   2uu2u :  3.84e-06   
u22uu : -8.76e-08   u22uu : -5.64e-07   u22uu :  3.12e-06   u22uu :  1.46e-06   
State 4/5           
2uu2u : -8.72e-01   
u2u2u : -3.80e-01   
22uuu :  2.42e-01   
2u2uu :  1.80e-01   
uu22u :  5.23e-02   
u22uu :  4.99e-02   
u2uu2 : -3.65e-06   
uu2u2 : -1.96e-06   
2uuu2 :  1.53e-06   
uuu22 : -3.26e-07   
Leading 10 CSFs of 5 local primitive basis functions for fragment 1 in rootspace 62:
State 0/5           State 1/5           State 2/5           State 3/5           
uuuu0 : -8.83e-01   uuu0u : -9.30e-01   uu0uu :  9.30e-01   0uuuu :  9.12e-01   
u0uuu : -4.66e-01   uu0uu :  3.68e-01   uuu0u :  3.68e-01   u0uuu : -3.34e-01   
0uuuu :  6.07e-02   uuuu0 :  1.61e-03   uuuu0 : -5.67e-04   uuuu0 :  2.39e-01   
uuu0u : -1.42e-03   u0uuu : -1.37e-04   0uuuu : -2.30e-04   uuu0u :  5.12e-04   
uu0uu :  1.05e-04   0uuuu : -3.65e-05   u0uuu :  1.32e-04   uu0uu :  2.16e-04   
State 4/5           
u0uuu : -8.19e-01   
0uuuu : -4.06e-01   
uuuu0 :  4.05e-01   
uuu0u :  8.13e-04   
uu0uu : -5.96e-05   
Leading 10 CSFs of 1 local primitive basis functions for fragment 2 in rootspace 62:
State 0/1           
uuuuu :  1.00e+00   
Rootspace 143 with averaged weight 1.407e-06
 Frag    Nelec  2S+1   Ir     <n>  Max(weight)   Entropy
    0    5a+2b     4    A   1.183       0.4288  0.969947
    1    0a+4b     5    A   2.024       0.4760  0.969977
    2    3a+2b     6    A   0.000       1.0000  0.000000
Wave function(s) in rootspace 143 in local primitive basis:
 Fac:  3.065e-03  2.513e-04  1.844e-04  2.038e-04  6.785e-04  1.004e-03  5.051e-04  6.862e-13
 230:  6.341e-01  6.281e-01  6.477e-01  6.247e-01 -6.277e-01 -6.261e-01 -6.249e-01  6.305e-01
 120:  5.031e-01  5.062e-01  4.963e-01  5.085e-01 -5.064e-01 -5.074e-01 -5.081e-01  5.068e-01
 000:  4.480e-01  4.488e-01  4.460e-01  4.490e-01 -4.488e-01 -4.489e-01 -4.490e-01  4.485e-01
 030:  2.771e-01  2.821e-01  2.645e-01  2.847e-01 -2.826e-01 -2.838e-01 -2.848e-01  2.796e-01
 200:  1.693e-01  1.659e-01  1.765e-01  1.630e-01 -1.657e-01 -1.645e-01 -1.636e-01  1.644e-01
 310: -1.425e-01 -1.475e-01 -1.307e-01 -1.504e-01  1.478e-01  1.491e-01  1.501e-01 -1.444e-01
 040:  1.044e-01  1.077e-01  9.665e-02  1.096e-01 -1.079e-01 -1.088e-01 -1.094e-01  1.056e-01
 240: -5.901e-02 -5.848e-02 -6.013e-02 -5.804e-02  5.848e-02  5.830e-02  5.818e-02 -5.874e-02
 110:  5.208e-02  5.320e-02  4.944e-02  5.380e-02 -5.328e-02 -5.354e-02 -5.375e-02  5.251e-02
 320:  3.515e-02  3.327e-02  3.979e-02  3.235e-02 -3.311e-02 -3.267e-02 -3.233e-02  3.353e-02
 330:  1.101e-03  1.082e-03  1.144e-03  1.071e-03 -1.081e-03 -1.076e-03 -1.072e-03  1.084e-03
 220: -5.068e-04 -5.027e-04 -5.162e-04 -5.007e-04  5.024e-04  5.015e-04  5.007e-04 -4.933e-04
 020: -4.153e-04 -4.205e-04 -4.022e-04 -4.233e-04  4.210e-04  4.223e-04  4.233e-04 -4.185e-04
 100: -3.783e-04 -3.734e-04 -3.901e-04 -3.712e-04  3.728e-04  3.716e-04  3.707e-04 -3.766e-04
 130:  3.145e-04  2.925e-04  3.678e-04  2.807e-04 -2.906e-04 -2.851e-04 -2.807e-04  3.093e-04
 010: -2.072e-04 -2.087e-04 -2.034e-04 -2.096e-04  2.089e-04  2.092e-04  2.095e-04 -2.081e-04
 210:  2.022e-04  2.111e-04  1.815e-04  2.167e-04 -2.117e-04 -2.142e-04 -2.160e-04  2.065e-04
 300:  1.462e-04  1.384e-04  1.630e-04  1.321e-04 -1.381e-04 -1.354e-04 -1.335e-04  1.210e-04
Remaining 7 ENVs in rootspace 143 have combined average weight = 7.186781e-09
Leading 10 CSFs of 5 local primitive basis functions for fragment 0 in rootspace 143:
State 0/5           State 1/5           State 2/5           State 3/5           
2uuu2 : -9.17e-01   uuu22 :  9.95e-01   uu2u2 : -8.23e-01   u2uu2 : -8.32e-01   
uu2u2 : -3.54e-01   uu2u2 : -9.26e-02   u2uu2 :  5.23e-01   uu2u2 : -4.35e-01   
u2uu2 : -1.81e-01   u2uu2 : -4.24e-02   2uuu2 :  2.16e-01   2uuu2 :  3.35e-01   
uuu22 : -2.84e-02   2uuu2 :  1.32e-02   uuu22 : -5.72e-02   uuu22 : -8.04e-02   
u2u2u : -2.12e-06   22uuu : -9.64e-06   u2u2u :  1.28e-05   uu22u :  1.19e-05   
2u2uu : -1.46e-06   2u2uu : -4.62e-06   2u2uu :  8.45e-06   22uuu : -1.02e-05   
uu22u : -1.18e-06   uu22u :  3.47e-06   uu22u :  6.23e-06   2u2uu : -6.02e-06   
2uu2u :  4.43e-07   u2u2u : -3.46e-06   2uu2u : -4.30e-06   u2u2u : -4.65e-06   
22uuu : -1.98e-07   2uu2u : -1.91e-06   22uuu : -3.96e-06   2uu2u :  3.84e-06   
u22uu : -8.76e-08   u22uu : -5.64e-07   u22uu :  3.12e-06   u22uu :  1.46e-06   
State 4/5           
2uu2u : -8.72e-01   
u2u2u : -3.80e-01   
22uuu :  2.42e-01   
2u2uu :  1.80e-01   
uu22u :  5.23e-02   
u22uu :  4.99e-02   
u2uu2 : -3.65e-06   
uu2u2 : -1.96e-06   
2uuu2 :  1.53e-06   
uuu22 : -3.26e-07   
Leading 10 CSFs of 5 local primitive basis functions for fragment 1 in rootspace 143:
State 0/5           State 1/5           State 2/5           State 3/5           
uuuu0 : -8.83e-01   uuu0u : -9.30e-01   uu0uu :  9.30e-01   0uuuu :  9.12e-01   
u0uuu : -4.66e-01   uu0uu :  3.68e-01   uuu0u :  3.68e-01   u0uuu : -3.34e-01   
0uuuu :  6.07e-02   uuuu0 :  1.61e-03   uuuu0 : -5.67e-04   uuuu0 :  2.39e-01   
uuu0u : -1.42e-03   u0uuu : -1.37e-04   0uuuu : -2.30e-04   uuu0u :  5.12e-04   
uu0uu :  1.05e-04   0uuuu : -3.65e-05   u0uuu :  1.32e-04   uu0uu :  2.16e-04   
State 4/5           
u0uuu : -8.19e-01   
0uuuu : -4.06e-01   
uuuu0 :  4.05e-01   
uuu0u :  8.13e-04   
uu0uu : -5.96e-05   
Leading 10 CSFs of 1 local primitive basis functions for fragment 2 in rootspace 143:
State 0/1           
uuuuu :  1.00e+00   
Remaining 48 rootspaces have combined weight = 9.212117e-14

WARN: Not all rootspaces examined because their weights are too small. Metrics for omitted rootspaces are set to -1. Set print_all_but=-1 to ensure all rootspaces are examined.

