#INFO: **** input file is /project/lgagliardi/valayagarawal/lasscf/mof_nodes/Fe_Fe_Fe/production/15_16/lassi.py ****
import numpy as np
import sys
from pyscf import gto, scf, tools,lib, mcscf
from pyscf.mcscf import avas,project_init_guess
from pyscf import mcscf
from mrh.my_pyscf.tools import molden
from mrh.my_pyscf.mcscf import lasscf_async as asyn
mol_name='Fe_Fe_Fe.xyz' # Al-Fe-Fe MOF node
basis={'C': 'cc-pvdz','H': 'cc-pvdz','O': 'cc-pvtz','Al': 'cc-pvtz','Fe': 'cc-pvtz'}
output='lassi_1_5.log'
mol=gto.M(atom=mol_name,verbose=4,spin=14,charge=0,basis=basis, output=output) #spin = 2S
mf=scf.RHF(mol)
#mf.init_guess='atom'
mf=mf.density_fit()
mf.max_cycle=1
mf.kernel()
#mf=mf.newton()
#mf.max_cycle=1
#mf.kernel()
mf.mo_coeff=np.load('hf.npy')
#ncas,nelecas,guess_mo_coeff=avas.kernel(mf,['Fe 3d', 'Fe 4d'],minao=mol.basis, openshell_option=3)
#mc_test = mcscf.CASCI (mf, ncas, nelecas)
#final_list=[8,9,10,11,12,13,14,15,16,17,18,19,20,21,22,23,24,25,26,27,28,29,30,31,32,33,34,35,36,37]+mc_test.ncore
mo_converged=np.load('las_15_16.npy')
las=asyn.LASSCF(mf,(5,5,5),((3,3),(0,5),(5,0)),spin_sub=(5,6,6),verbose=4) 
las.set_fragments_(([17],[19],[22]),mo_converged)
las.mo_coeff=mo_converged

from mrh.my_pyscf.lassi import states
from mrh.my_pyscf.mcscf.lasci import get_space_info
las=states.spin_shuffle(las)
las=states.all_single_excitations(las)
ncsf=las.get_ugg().ncsf_sub
charges, spins, smults, wfnsyms = get_space_info (las)
#np.save('spins',spins)
#np.save('smults',smults)
#np.save('charges',charges)
#exit()
lroots=np.minimum(5,ncsf)
#lroots[charges.T==0] =1
las.lasci()
las.lasci(lroots=lroots)
eroots,si=las.lassi()
#from mrh.my_pyscf.lassi.sitools import analyze
#ci1, si1, space_weights, navg, maxw, entr = analyze(las,si, state=[0,1,2,6,12,17,21,23],return_metrics=True)
#np.save('r1_n5_ct/ci1',ci1)
#np.save('r1_n5_ct/si1',si1)
#np.save('r1_n5_ct/space_weights',space_weights)
#np.save('r1_n5_ct/navg',navg)
#np.save('r1_n5_ct/maxw',maxw)
#np.save('r1_n5_ct/entr',entr)
#INFO: ******************** input file end ********************


System: uname_result(system='Linux', node='midway3-0308.rcc.local', release='4.18.0-305.3.1.el8.x86_64', version='#1 SMP Tue Jun 1 16:14:33 UTC 2021', machine='x86_64')  Threads 16
Python 3.9.12 (main, Apr  5 2022, 06:56:58) 
[GCC 7.5.0]
numpy 1.25.0  scipy 1.7.3
Date: Wed Feb 21 08:40:40 2024
PySCF version 2.5.0
PySCF path  /project/lgagliardi/shared/Apps/pyscf
GIT ORIG_HEAD 0bc590ffddec98eec5d2513a3d85274b7a791bc6
GIT HEAD (branch master) 6f8ce439fbe0c26ec4d226e2225b28c7f668f922

[ENV] PYSCF_MAX_MEMORY 256000
[CONFIG] conf_file /home/valayagarawal/.pyscf_conf.py
[INPUT] verbose = 4
[INPUT] num. atoms = 28
[INPUT] num. electrons = 224
[INPUT] charge = 0
[INPUT] spin (= nelec alpha-beta = 2S) = 14
[INPUT] symmetry False subgroup None
[INPUT] Mole.unit = angstrom
[INPUT] Symbol           X                Y                Z      unit          X                Y                Z       unit  Magmom
[INPUT]  1 O     -1.396530535900  -2.155053668200   1.497463409200 AA   -2.639060237443  -4.072461216637   2.829795724946 Bohr   0.0
[INPUT]  2 O     -1.424929947800  -0.157920218100   2.556757216000 AA   -2.692727348033  -0.298425961741   4.831570905245 Bohr   0.0
[INPUT]  3 C     -1.805663158200  -1.333357732900   2.354770590800 AA   -3.412208842215  -2.519680941252   4.449871502792 Bohr   0.0
[INPUT]  4 H     -2.611139823600  -1.698287376800   3.015172571600 AA   -4.934339139549  -3.209298022958   5.697850378625 Bohr   0.0
[INPUT]  5 O      1.422169433100  -0.172776606600  -2.448307975000 AA    2.687510731287  -0.326500467206  -4.626631541338 Bohr   0.0
[INPUT]  6 O      1.404243291500  -2.165442677100  -1.387375375500 AA    2.653635233193  -4.092093598164  -2.621759491661 Bohr   0.0
[INPUT]  7 C      1.812327532700  -1.345288486000  -2.246529163600 AA    3.424802684812  -2.542226797071  -4.245324850052 Bohr   0.0
[INPUT]  8 H      2.621336913500  -1.706173551000  -2.904090707500 AA    4.953608846728  -3.224200732367  -5.487936078069 Bohr   0.0
[INPUT]  9 O     -1.428899418000   2.343625706100   1.186473538000 AA   -2.700228559570   4.428810723019   2.242110040864 Bohr   0.0
[INPUT] 10 O     -1.403562858100  -2.165307124600  -1.387572278000 AA   -2.652349400421  -4.091837441063  -2.622131583459 Bohr   0.0
[INPUT] 11 O     -1.422998602300  -0.172362922600  -2.447964967100 AA   -2.689077633986  -0.325718717744  -4.625983350349 Bohr   0.0
[INPUT] 12 C     -1.812500488200  -1.345105901400  -2.246279413800 AA   -3.425129523338  -2.541881762182  -4.244852891331 Bohr   0.0
[INPUT] 13 H     -2.621699381200  -1.706195274400  -2.903496623700 AA   -4.954293811410  -3.224241783643  -5.486813422392 Bohr   0.0
[INPUT] 14 O      1.425112370600  -0.157194806200   2.556693752400 AA    2.693072077164  -0.297055131922   4.831450976423 Bohr   0.0
[INPUT] 15 O      1.397382094800  -2.154305542500   1.497360668900 AA    2.640669450543  -4.071047463958   2.829601573917 Bohr   0.0
[INPUT] 16 C      1.806221903800  -1.332524996000   2.354699920000 AA    3.413264718373  -2.518107296577   4.449737954335 Bohr   0.0
[INPUT] 17 H      2.611813123200  -1.697184247500   3.015110605000 AA    4.935611491393  -3.207213410701   5.697733278722 Bohr   0.0
[INPUT] 18 Fe    -0.000142986400   0.971642646100   1.624782043000 AA   -0.000270205136   1.836138492077   3.070393073381 Bohr   0.0
[INPUT] 19 O      1.428198548600   2.344050002400   1.186026051100 AA    2.698904108355   4.429612526822   2.241264413178 Bohr   0.0
[INPUT] 20 Fe    -0.000136422400   0.952927878000  -1.522872888500 AA   -0.000257800973   1.800772705883  -2.877812681790 Bohr   0.0
[INPUT] 21 O      1.423595106900   2.330128124700  -1.070103353900 AA    2.690204864312   4.403303990829  -2.022202263850 Bohr   0.0
[INPUT] 22 O     -1.423503945100   2.330456754100  -1.069656997800 AA   -2.690032593477   4.403925010392  -2.021358773066 Bohr   0.0
[INPUT] 23 Fe     0.000254998800  -1.941619777000   0.045888528400 AA    0.000481877894  -3.669129616569   0.086716750935 Bohr   0.0
[INPUT] 24 O     -0.000152138200  -0.071914987500   0.072147896200 AA   -0.000287499531  -0.135899630627   0.136339764282 Bohr   0.0
[INPUT] 25 C      1.815220274200   2.721515147600   0.054422244100 AA    3.430269173996   5.142918272819   0.102843136433 Bohr   0.0
[INPUT] 26 H      2.604057214900   3.492625268800   0.048831474800 AA    4.920954948859   6.600105213767   0.092278113631 Bohr   0.0
[INPUT] 27 C     -1.815568952400   2.721425035400   0.054846494400 AA   -3.430928080300   5.142747985441   0.103644853308 Bohr   0.0
[INPUT] 28 H     -2.604489027400   3.492449071900   0.049250759800 AA   -4.921770956221   6.599772249882   0.093070447449 Bohr   0.0

nuclear repulsion = 3848.37097509846
number of shells = 192
number of NR pGTOs = 1137
number of NR cGTOs = 708
basis = {'C': 'cc-pvdz', 'H': 'cc-pvdz', 'O': 'cc-pvtz', 'Al': 'cc-pvtz', 'Fe': 'cc-pvtz'}
ecp = {}
CPU time:         1.71


******** <class 'pyscf.df.df_jk.DFROHF'> ********
method = DFROHF
initial guess = minao
damping factor = 0
level_shift factor = 0
DIIS = <class 'pyscf.scf.diis.CDIIS'>
diis_start_cycle = 1
diis_space = 8
diis_damp = 0
SCF conv_tol = 1e-09
SCF conv_tol_grad = None
SCF max_cycles = 1
direct_scf = False
chkfile to save SCF result = /scratch/local/jobs/17678322/tmp2bv68aqk
max_memory 256000 MB (current use 76 MB)
num. doubly occ = 105  num. singly occ = 14
Set gradient conv threshold to 3.16228e-05
******** <class 'pyscf.df.df.DF'> ********
auxbasis = None
max_memory = 256000
Even tempered Gaussians are generated as DF auxbasis for  O H C Fe
init E= -4989.57211323766
  HOMO = 0.143847996495739  LUMO = 0.151053031442599
cycle= 1 E= -4950.11181863296  delta_E= 39.5  |g|=   11  |ddm|= 94.9
SCF not converged.
SCF energy = -4950.11181863296
Built 23 spin(local Sz)-shuffled LAS states from 1 reference LAS states
Built 158 singly-excited LAS states from 24 reference LAS states
Entering product-state fixed-point CI iteration
Cycle 0: max grad = 2.511558e-03 ; sigma = 0.000000e+00
Cycle 1: max grad = 4.641246e-14 ; sigma = 2.504510e-08
Cycle 2: max grad = 4.641246e-14 ; sigma = 0.000000e+00
Product_state fixed-point CI iteration converged after 2 cycles
Entering product-state fixed-point CI iteration
Cycle 0: max grad = 2.512680e-03 ; sigma = 0.000000e+00
Cycle 1: max grad = 1.685201e-15 ; sigma = 2.506886e-08
Cycle 2: max grad = 1.685201e-15 ; sigma = 1.136868e-13
Product_state fixed-point CI iteration converged after 2 cycles
Entering product-state fixed-point CI iteration
Cycle 0: max grad = 2.510055e-03 ; sigma = 0.000000e+00
Cycle 1: max grad = 1.136868e-13 ; sigma = 2.501554e-08
Cycle 2: max grad = 1.136868e-13 ; sigma = 2.273737e-13
Product_state fixed-point CI iteration converged after 2 cycles
Entering product-state fixed-point CI iteration
Cycle 0: max grad = 2.507429e-03 ; sigma = 0.000000e+00
Cycle 1: max grad = 2.808673e-16 ; sigma = 2.496279e-08
Cycle 2: max grad = 2.808673e-16 ; sigma = 1.136868e-13
Product_state fixed-point CI iteration converged after 2 cycles
Entering product-state fixed-point CI iteration
Cycle 0: max grad = 2.504804e-03 ; sigma = 0.000000e+00
Cycle 1: max grad = 1.136868e-13 ; sigma = 2.491106e-08
Cycle 2: max grad = 1.136868e-13 ; sigma = 1.136868e-13
Product_state fixed-point CI iteration converged after 2 cycles
Entering product-state fixed-point CI iteration
Cycle 0: max grad = 2.513479e-03 ; sigma = 0.000000e+00
Cycle 1: max grad = 1.421085e-13 ; sigma = 2.508432e-08
Cycle 2: max grad = 1.421085e-13 ; sigma = 0.000000e+00
Product_state fixed-point CI iteration converged after 2 cycles
Entering product-state fixed-point CI iteration
Cycle 0: max grad = 2.512166e-03 ; sigma = 0.000000e+00
Cycle 1: max grad = 3.651265e-15 ; sigma = 2.505772e-08
Cycle 2: max grad = 3.651265e-15 ; sigma = 0.000000e+00
Product_state fixed-point CI iteration converged after 2 cycles
Entering product-state fixed-point CI iteration
Cycle 0: max grad = 2.510854e-03 ; sigma = 0.000000e+00
Cycle 1: max grad = 5.684342e-14 ; sigma = 2.503134e-08
Cycle 2: max grad = 5.684342e-14 ; sigma = 0.000000e+00
Product_state fixed-point CI iteration converged after 2 cycles
Entering product-state fixed-point CI iteration
Cycle 0: max grad = 2.509541e-03 ; sigma = 0.000000e+00
Cycle 1: max grad = 8.526513e-14 ; sigma = 2.500497e-08
Cycle 2: max grad = 8.526513e-14 ; sigma = 0.000000e+00
Product_state fixed-point CI iteration converged after 2 cycles
Entering product-state fixed-point CI iteration
Cycle 0: max grad = 2.508228e-03 ; sigma = 0.000000e+00
Cycle 1: max grad = 2.842171e-14 ; sigma = 2.497904e-08
Cycle 2: max grad = 2.842171e-14 ; sigma = 2.273737e-13
Product_state fixed-point CI iteration converged after 2 cycles
Entering product-state fixed-point CI iteration
Cycle 0: max grad = 2.511558e-03 ; sigma = 0.000000e+00
Cycle 1: max grad = 4.641246e-14 ; sigma = 2.504521e-08
Cycle 2: max grad = 4.641246e-14 ; sigma = 1.136868e-13
Product_state fixed-point CI iteration converged after 2 cycles
Entering product-state fixed-point CI iteration
Cycle 0: max grad = 2.511558e-03 ; sigma = 0.000000e+00
Cycle 1: max grad = 4.641246e-14 ; sigma = 2.504521e-08
Cycle 2: max grad = 4.641246e-14 ; sigma = 1.136868e-13
Product_state fixed-point CI iteration converged after 2 cycles
Entering product-state fixed-point CI iteration
Cycle 0: max grad = 2.511558e-03 ; sigma = 0.000000e+00
Cycle 1: max grad = 4.641246e-14 ; sigma = 2.504521e-08
Cycle 2: max grad = 4.641246e-14 ; sigma = 1.136868e-13
Product_state fixed-point CI iteration converged after 2 cycles
Entering product-state fixed-point CI iteration
Cycle 0: max grad = 2.511558e-03 ; sigma = 0.000000e+00
Cycle 1: max grad = 4.641246e-14 ; sigma = 2.504521e-08
Cycle 2: max grad = 4.641246e-14 ; sigma = 1.136868e-13
Product_state fixed-point CI iteration converged after 2 cycles
Entering product-state fixed-point CI iteration
Cycle 0: max grad = 2.511558e-03 ; sigma = 0.000000e+00
Cycle 1: max grad = 4.641246e-14 ; sigma = 2.504521e-08
Cycle 2: max grad = 4.641246e-14 ; sigma = 1.136868e-13
Product_state fixed-point CI iteration converged after 2 cycles
Entering product-state fixed-point CI iteration
Cycle 0: max grad = 2.508228e-03 ; sigma = 0.000000e+00
Cycle 1: max grad = 8.526513e-14 ; sigma = 2.497893e-08
Cycle 2: max grad = 8.526513e-14 ; sigma = 1.136868e-13
Product_state fixed-point CI iteration converged after 2 cycles
Entering product-state fixed-point CI iteration
Cycle 0: max grad = 2.509541e-03 ; sigma = 0.000000e+00
Cycle 1: max grad = 1.136868e-13 ; sigma = 2.500497e-08
Cycle 2: max grad = 1.136868e-13 ; sigma = 1.136868e-13
Product_state fixed-point CI iteration converged after 2 cycles
Entering product-state fixed-point CI iteration
Cycle 0: max grad = 2.510854e-03 ; sigma = 0.000000e+00
Cycle 1: max grad = 2.842171e-14 ; sigma = 2.503123e-08
Cycle 2: max grad = 2.842171e-14 ; sigma = 2.273737e-13
Product_state fixed-point CI iteration converged after 2 cycles
Entering product-state fixed-point CI iteration
Cycle 0: max grad = 2.512166e-03 ; sigma = 0.000000e+00
Cycle 1: max grad = 8.526513e-14 ; sigma = 2.505760e-08
Cycle 2: max grad = 8.526513e-14 ; sigma = 1.136868e-13
Product_state fixed-point CI iteration converged after 2 cycles
Entering product-state fixed-point CI iteration
Cycle 0: max grad = 2.513479e-03 ; sigma = 0.000000e+00
Cycle 1: max grad = 1.136868e-13 ; sigma = 2.508420e-08
Cycle 2: max grad = 1.136868e-13 ; sigma = 1.136868e-13
Product_state fixed-point CI iteration converged after 2 cycles
Entering product-state fixed-point CI iteration
Cycle 0: max grad = 2.504804e-03 ; sigma = 0.000000e+00
Cycle 1: max grad = 1.136868e-13 ; sigma = 2.491095e-08
Cycle 2: max grad = 1.136868e-13 ; sigma = 1.136868e-13
Product_state fixed-point CI iteration converged after 2 cycles
Entering product-state fixed-point CI iteration
Cycle 0: max grad = 2.507429e-03 ; sigma = 0.000000e+00
Cycle 1: max grad = 1.986028e-15 ; sigma = 2.496301e-08
Cycle 2: max grad = 1.986028e-15 ; sigma = 1.136868e-13
Product_state fixed-point CI iteration converged after 2 cycles
Entering product-state fixed-point CI iteration
Cycle 0: max grad = 2.510055e-03 ; sigma = 0.000000e+00
Cycle 1: max grad = 1.136868e-13 ; sigma = 2.501554e-08
Cycle 2: max grad = 1.136868e-13 ; sigma = 1.136868e-13
Product_state fixed-point CI iteration converged after 2 cycles
Entering product-state fixed-point CI iteration
Cycle 0: max grad = 2.512680e-03 ; sigma = 0.000000e+00
Cycle 1: max grad = 1.685196e-15 ; sigma = 2.506886e-08
Cycle 2: max grad = 1.685196e-15 ; sigma = 2.273737e-13
Product_state fixed-point CI iteration converged after 2 cycles
Entering product-state fixed-point CI iteration
Cycle 0: max grad = 9.205398e-03 ; sigma = 0.000000e+00
Cycle 1: max grad = 1.925413e-04 ; sigma = 1.386739e-02
Cycle 2: max grad = 3.806094e-06 ; sigma = 5.281133e-06
Cycle 3: max grad = 1.102494e-08 ; sigma = 2.942215e-10
Cycle 4: max grad = 2.149370e-10 ; sigma = 5.684342e-13
Product_state fixed-point CI iteration converged after 4 cycles
Entering product-state fixed-point CI iteration
Cycle 0: max grad = 1.364572e-03 ; sigma = 0.000000e+00
Cycle 1: max grad = 1.348160e-14 ; sigma = 4.635324e-03
Cycle 2: max grad = 1.348160e-14 ; sigma = 1.136868e-13
Product_state fixed-point CI iteration converged after 2 cycles
Entering product-state fixed-point CI iteration
Cycle 0: max grad = 3.755049e-03 ; sigma = 0.000000e+00
Cycle 1: max grad = 2.952061e-04 ; sigma = 1.424532e-02
Cycle 2: max grad = 3.300447e-07 ; sigma = 2.289513e-06
Cycle 3: max grad = 2.590205e-10 ; sigma = 2.842171e-12
Product_state fixed-point CI iteration converged after 3 cycles
Entering product-state fixed-point CI iteration
Cycle 0: max grad = 2.511080e-03 ; sigma = 0.000000e+00
Cycle 1: max grad = 1.139999e-04 ; sigma = 1.413815e-02
Cycle 2: max grad = 8.257151e-08 ; sigma = 1.951904e-07
Cycle 3: max grad = 3.608582e-10 ; sigma = 5.684342e-13
Product_state fixed-point CI iteration converged after 3 cycles
Entering product-state fixed-point CI iteration
Cycle 0: max grad = 9.454207e-03 ; sigma = 0.000000e+00
Cycle 1: max grad = 7.065949e-05 ; sigma = 1.464888e-02
Cycle 2: max grad = 2.108916e-06 ; sigma = 1.130573e-06
Cycle 3: max grad = 1.341870e-08 ; sigma = 4.297362e-10
Cycle 4: max grad = 8.045471e-10 ; sigma = 4.547474e-13
Product_state fixed-point CI iteration converged after 4 cycles
Entering product-state fixed-point CI iteration
Cycle 0: max grad = 8.004559e-04 ; sigma = 0.000000e+00
Cycle 1: max grad = 4.493867e-15 ; sigma = 4.242280e-03
Cycle 2: max grad = 4.493867e-15 ; sigma = 5.684342e-14
Product_state fixed-point CI iteration converged after 2 cycles
Entering product-state fixed-point CI iteration
Cycle 0: max grad = 1.908371e-02 ; sigma = 0.000000e+00
Cycle 1: max grad = 2.640342e-04 ; sigma = 2.149907e-02
Cycle 2: max grad = 3.063087e-07 ; sigma = 1.861499e-06
Cycle 3: max grad = 2.131812e-10 ; sigma = 2.501110e-12
Product_state fixed-point CI iteration converged after 3 cycles
Entering product-state fixed-point CI iteration
Cycle 0: max grad = 1.995017e-02 ; sigma = 0.000000e+00
Cycle 1: max grad = 1.285335e-04 ; sigma = 2.291700e-02
Cycle 2: max grad = 9.494257e-08 ; sigma = 2.415808e-07
Cycle 3: max grad = 2.058804e-10 ; sigma = 4.547474e-13
Product_state fixed-point CI iteration converged after 3 cycles
Entering product-state fixed-point CI iteration
Cycle 0: max grad = 1.460596e-03 ; sigma = 0.000000e+00
Cycle 1: max grad = 6.669177e-15 ; sigma = 4.848960e-03
Cycle 2: max grad = 2.330535e-15 ; sigma = 5.684342e-14
Product_state fixed-point CI iteration converged after 2 cycles
Entering product-state fixed-point CI iteration
Cycle 0: max grad = 1.910559e-02 ; sigma = 0.000000e+00
Cycle 1: max grad = 2.682763e-04 ; sigma = 2.127786e-02
Cycle 2: max grad = 3.161281e-07 ; sigma = 1.924963e-06
Cycle 3: max grad = 2.198988e-10 ; sigma = 2.501110e-12
Product_state fixed-point CI iteration converged after 3 cycles
Entering product-state fixed-point CI iteration
Cycle 0: max grad = 3.757784e-03 ; sigma = 0.000000e+00
Cycle 1: max grad = 2.665411e-04 ; sigma = 1.415790e-02
Cycle 2: max grad = 3.439386e-07 ; sigma = 1.868948e-06
Cycle 3: max grad = 2.113154e-10 ; sigma = 2.273737e-12
Product_state fixed-point CI iteration converged after 3 cycles
Entering product-state fixed-point CI iteration
Cycle 0: max grad = 2.510830e-03 ; sigma = 0.000000e+00
Cycle 1: max grad = 4.749575e-05 ; sigma = 1.416960e-02
Cycle 2: max grad = 3.722546e-08 ; sigma = 4.485094e-08
Cycle 3: max grad = 1.858844e-10 ; sigma = 2.273737e-13
Product_state fixed-point CI iteration converged after 3 cycles
Entering product-state fixed-point CI iteration
Cycle 0: max grad = 9.209427e-03 ; sigma = 0.000000e+00
Cycle 1: max grad = 1.971433e-04 ; sigma = 1.394164e-02
Cycle 2: max grad = 4.036619e-06 ; sigma = 5.530260e-06
Cycle 3: max grad = 1.194584e-08 ; sigma = 3.279865e-10
Cycle 4: max grad = 2.421103e-10 ; sigma = 4.547474e-13
Product_state fixed-point CI iteration converged after 4 cycles
Entering product-state fixed-point CI iteration
Cycle 0: max grad = 1.396376e-03 ; sigma = 0.000000e+00
Cycle 1: max grad = 1.271058e-14 ; sigma = 4.743543e-03
Cycle 2: max grad = 1.271058e-14 ; sigma = 5.684342e-14
Product_state fixed-point CI iteration converged after 2 cycles
Entering product-state fixed-point CI iteration
Cycle 0: max grad = 9.470815e-03 ; sigma = 0.000000e+00
Cycle 1: max grad = 5.411856e-05 ; sigma = 1.468088e-02
Cycle 2: max grad = 1.643848e-06 ; sigma = 9.257296e-07
Cycle 3: max grad = 8.538564e-09 ; sigma = 2.398792e-10
Cycle 4: max grad = 4.276330e-10 ; sigma = 4.547474e-13
Product_state fixed-point CI iteration converged after 4 cycles
Entering product-state fixed-point CI iteration
Cycle 0: max grad = 7.707365e-04 ; sigma = 0.000000e+00
Cycle 1: max grad = 1.906586e-14 ; sigma = 4.321237e-03
Cycle 2: max grad = 1.906586e-14 ; sigma = 5.684342e-14
Product_state fixed-point CI iteration converged after 2 cycles
Entering product-state fixed-point CI iteration
Cycle 0: max grad = 1.997865e-02 ; sigma = 0.000000e+00
Cycle 1: max grad = 6.325334e-05 ; sigma = 2.275212e-02
Cycle 2: max grad = 8.941910e-08 ; sigma = 9.506823e-08
Cycle 3: max grad = 1.158867e-10 ; sigma = 2.273737e-13
Product_state fixed-point CI iteration converged after 3 cycles
Entering product-state fixed-point CI iteration
Cycle 0: max grad = 1.525060e-03 ; sigma = 0.000000e+00
Cycle 1: max grad = 2.383233e-15 ; sigma = 4.910668e-03
Cycle 2: max grad = 2.383233e-15 ; sigma = 5.684342e-14
Product_state fixed-point CI iteration converged after 2 cycles
Entering product-state fixed-point CI iteration
Cycle 0: max grad = 7.558767e-04 ; sigma = 0.000000e+00
Cycle 1: max grad = 7.329261e-15 ; sigma = 4.360715e-03
Cycle 2: max grad = 7.343410e-15 ; sigma = 5.684342e-14
Product_state fixed-point CI iteration converged after 2 cycles
Entering product-state fixed-point CI iteration
Cycle 0: max grad = 1.912410e-02 ; sigma = 0.000000e+00
Cycle 1: max grad = 2.561003e-04 ; sigma = 2.115980e-02
Cycle 2: max grad = 2.887359e-07 ; sigma = 1.753517e-06
Cycle 3: max grad = 2.115428e-10 ; sigma = 2.387424e-12
Product_state fixed-point CI iteration converged after 3 cycles
Entering product-state fixed-point CI iteration
Cycle 0: max grad = 3.756803e-03 ; sigma = 0.000000e+00
Cycle 1: max grad = 2.773920e-04 ; sigma = 1.394477e-02
Cycle 2: max grad = 3.410037e-07 ; sigma = 2.023886e-06
Cycle 3: max grad = 2.138734e-10 ; sigma = 1.932676e-12
Product_state fixed-point CI iteration converged after 3 cycles
Entering product-state fixed-point CI iteration
Cycle 0: max grad = 2.509558e-03 ; sigma = 0.000000e+00
Cycle 1: max grad = 4.375945e-05 ; sigma = 1.400209e-02
Cycle 2: max grad = 3.365212e-08 ; sigma = 2.580111e-08
Cycle 3: max grad = 1.740492e-10 ; sigma = 0.000000e+00
Product_state fixed-point CI iteration converged after 3 cycles
Entering product-state fixed-point CI iteration
Cycle 0: max grad = 9.209384e-03 ; sigma = 0.000000e+00
Cycle 1: max grad = 1.879551e-04 ; sigma = 1.392302e-02
Cycle 2: max grad = 3.506225e-06 ; sigma = 5.022444e-06
Cycle 3: max grad = 9.756010e-09 ; sigma = 2.542038e-10
Cycle 4: max grad = 1.801368e-10 ; sigma = 7.958079e-13
Product_state fixed-point CI iteration converged after 4 cycles
Entering product-state fixed-point CI iteration
Cycle 0: max grad = 1.460596e-03 ; sigma = 0.000000e+00
Cycle 1: max grad = 2.542115e-14 ; sigma = 4.848960e-03
Cycle 2: max grad = 2.542115e-14 ; sigma = 5.684342e-14
Product_state fixed-point CI iteration converged after 2 cycles
Entering product-state fixed-point CI iteration
Cycle 0: max grad = 9.473049e-03 ; sigma = 0.000000e+00
Cycle 1: max grad = 6.028918e-05 ; sigma = 1.468848e-02
Cycle 2: max grad = 1.743798e-06 ; sigma = 9.654334e-07
Cycle 3: max grad = 9.691285e-09 ; sigma = 2.758043e-10
Cycle 4: max grad = 5.009611e-10 ; sigma = 7.958079e-13
Product_state fixed-point CI iteration converged after 4 cycles
Entering product-state fixed-point CI iteration
Cycle 0: max grad = 7.437136e-04 ; sigma = 0.000000e+00
Cycle 1: max grad = 1.271057e-14 ; sigma = 4.461522e-03
Cycle 2: max grad = 1.271057e-14 ; sigma = 0.000000e+00
Product_state fixed-point CI iteration converged after 2 cycles
Entering product-state fixed-point CI iteration
Cycle 0: max grad = 1.997657e-02 ; sigma = 0.000000e+00
Cycle 1: max grad = 6.411143e-05 ; sigma = 2.280804e-02
Cycle 2: max grad = 9.208344e-08 ; sigma = 9.775761e-08
Cycle 3: max grad = 1.296303e-10 ; sigma = 3.410605e-13
Product_state fixed-point CI iteration converged after 3 cycles
Entering product-state fixed-point CI iteration
Cycle 0: max grad = 1.557598e-03 ; sigma = 0.000000e+00
Cycle 1: max grad = 2.842778e-15 ; sigma = 4.887580e-03
Cycle 2: max grad = 1.125619e-15 ; sigma = 0.000000e+00
Product_state fixed-point CI iteration converged after 2 cycles
Entering product-state fixed-point CI iteration
Cycle 0: max grad = 7.362837e-04 ; sigma = 0.000000e+00
Cycle 1: max grad = 3.108624e-15 ; sigma = 4.481262e-03
Cycle 2: max grad = 5.746936e-15 ; sigma = 1.705303e-13
Product_state fixed-point CI iteration converged after 2 cycles
Entering product-state fixed-point CI iteration
Cycle 0: max grad = 1.912578e-02 ; sigma = 0.000000e+00
Cycle 1: max grad = 2.439098e-04 ; sigma = 2.119811e-02
Cycle 2: max grad = 2.625453e-07 ; sigma = 1.589944e-06
Cycle 3: max grad = 2.265494e-10 ; sigma = 2.046363e-12
Product_state fixed-point CI iteration converged after 3 cycles
Entering product-state fixed-point CI iteration
Cycle 0: max grad = 3.755822e-03 ; sigma = 0.000000e+00
Cycle 1: max grad = 2.882384e-04 ; sigma = 1.389553e-02
Cycle 2: max grad = 3.361454e-07 ; sigma = 2.184898e-06
Cycle 3: max grad = 2.346496e-10 ; sigma = 2.501110e-12
Product_state fixed-point CI iteration converged after 3 cycles
Entering product-state fixed-point CI iteration
Cycle 0: max grad = 2.508285e-03 ; sigma = 0.000000e+00
Cycle 1: max grad = 4.754250e-05 ; sigma = 1.393578e-02
Cycle 2: max grad = 4.299715e-08 ; sigma = 4.497178e-08
Cycle 3: max grad = 2.207765e-10 ; sigma = 2.273737e-13
Product_state fixed-point CI iteration converged after 3 cycles
Entering product-state fixed-point CI iteration
Cycle 0: max grad = 9.209341e-03 ; sigma = 0.000000e+00
Cycle 1: max grad = 1.777801e-04 ; sigma = 1.390440e-02
Cycle 2: max grad = 2.975283e-06 ; sigma = 4.500729e-06
Cycle 3: max grad = 7.751674e-09 ; sigma = 1.917897e-10
Cycle 4: max grad = 1.276064e-10 ; sigma = 3.410605e-13
Product_state fixed-point CI iteration converged after 4 cycles
Entering product-state fixed-point CI iteration
Cycle 0: max grad = 1.492889e-03 ; sigma = 0.000000e+00
Cycle 1: max grad = 1.271057e-14 ; sigma = 4.868652e-03
Cycle 2: max grad = 3.177644e-14 ; sigma = 1.136868e-13
Product_state fixed-point CI iteration converged after 2 cycles
Entering product-state fixed-point CI iteration
Cycle 0: max grad = 9.475283e-03 ; sigma = 0.000000e+00
Cycle 1: max grad = 6.643666e-05 ; sigma = 1.469609e-02
Cycle 2: max grad = 1.888935e-06 ; sigma = 1.027642e-06
Cycle 3: max grad = 1.134247e-08 ; sigma = 3.350351e-10
Cycle 4: max grad = 6.185701e-10 ; sigma = 5.684342e-13
Product_state fixed-point CI iteration converged after 4 cycles
Entering product-state fixed-point CI iteration
Cycle 0: max grad = 7.421358e-04 ; sigma = 0.000000e+00
Cycle 1: max grad = 5.084230e-14 ; sigma = 4.488545e-03
Cycle 2: max grad = 5.084230e-14 ; sigma = 5.684342e-14
Product_state fixed-point CI iteration converged after 2 cycles
Entering product-state fixed-point CI iteration
Cycle 0: max grad = 1.996025e-02 ; sigma = 0.000000e+00
Cycle 1: max grad = 6.316490e-05 ; sigma = 2.294645e-02
Cycle 2: max grad = 8.973022e-08 ; sigma = 9.493112e-08
Cycle 3: max grad = 1.114037e-10 ; sigma = 2.273737e-13
Product_state fixed-point CI iteration converged after 3 cycles
Entering product-state fixed-point CI iteration
Cycle 0: max grad = 7.421358e-04 ; sigma = 0.000000e+00
Cycle 1: max grad = 1.188647e-15 ; sigma = 4.488545e-03
Cycle 2: max grad = 1.450391e-15 ; sigma = 5.684342e-14
Product_state fixed-point CI iteration converged after 2 cycles
Entering product-state fixed-point CI iteration
Cycle 0: max grad = 1.911062e-02 ; sigma = 0.000000e+00
Cycle 1: max grad = 2.317204e-04 ; sigma = 2.139268e-02
Cycle 2: max grad = 2.490766e-07 ; sigma = 1.434455e-06
Cycle 3: max grad = 2.605702e-10 ; sigma = 2.273737e-12
Product_state fixed-point CI iteration converged after 3 cycles
Entering product-state fixed-point CI iteration
Cycle 0: max grad = 3.754842e-03 ; sigma = 0.000000e+00
Cycle 1: max grad = 2.990640e-04 ; sigma = 1.401026e-02
Cycle 2: max grad = 3.292346e-07 ; sigma = 2.351716e-06
Cycle 3: max grad = 2.770548e-10 ; sigma = 3.069545e-12
Product_state fixed-point CI iteration converged after 3 cycles
Entering product-state fixed-point CI iteration
Cycle 0: max grad = 9.209298e-03 ; sigma = 0.000000e+00
Cycle 1: max grad = 1.668673e-04 ; sigma = 1.388578e-02
Cycle 2: max grad = 2.449827e-06 ; sigma = 3.983173e-06
Cycle 3: max grad = 5.966466e-09 ; sigma = 1.423359e-10
Cycle 4: max grad = 8.239454e-11 ; sigma = 2.273737e-13
Product_state fixed-point CI iteration converged after 4 cycles
Entering product-state fixed-point CI iteration
Cycle 0: max grad = 1.493256e-03 ; sigma = 0.000000e+00
Cycle 1: max grad = 6.355287e-15 ; sigma = 4.802884e-03
Cycle 2: max grad = 6.355287e-15 ; sigma = 5.684342e-14
Product_state fixed-point CI iteration converged after 2 cycles
Entering product-state fixed-point CI iteration
Cycle 0: max grad = 9.477517e-03 ; sigma = 0.000000e+00
Cycle 1: max grad = 7.255663e-05 ; sigma = 1.470371e-02
Cycle 2: max grad = 2.090308e-06 ; sigma = 1.116524e-06
Cycle 3: max grad = 1.363645e-08 ; sigma = 4.264393e-10
Cycle 4: max grad = 8.024585e-10 ; sigma = 6.821210e-13
Product_state fixed-point CI iteration converged after 4 cycles
Entering product-state fixed-point CI iteration
Cycle 0: max grad = 7.660031e-04 ; sigma = 0.000000e+00
Cycle 1: max grad = 6.355287e-15 ; sigma = 4.402305e-03
Cycle 2: max grad = 6.355287e-15 ; sigma = 5.684342e-14
Product_state fixed-point CI iteration converged after 2 cycles
Entering product-state fixed-point CI iteration
Cycle 0: max grad = 3.756356e-03 ; sigma = 0.000000e+00
Cycle 1: max grad = 2.807833e-04 ; sigma = 1.420156e-02
Cycle 2: max grad = 3.379646e-07 ; sigma = 2.071710e-06
Cycle 3: max grad = 2.169061e-10 ; sigma = 2.160050e-12
Product_state fixed-point CI iteration converged after 3 cycles
Entering product-state fixed-point CI iteration
Cycle 0: max grad = 2.511654e-03 ; sigma = 0.000000e+00
Cycle 1: max grad = 8.076715e-05 ; sigma = 1.415386e-02
Cycle 2: max grad = 5.861480e-08 ; sigma = 1.052672e-07
Cycle 3: max grad = 2.431947e-10 ; sigma = 3.410605e-13
Product_state fixed-point CI iteration converged after 3 cycles
Entering product-state fixed-point CI iteration
Cycle 0: max grad = 9.451229e-03 ; sigma = 0.000000e+00
Cycle 1: max grad = 6.247041e-05 ; sigma = 1.463874e-02
Cycle 2: max grad = 1.866072e-06 ; sigma = 1.024881e-06
Cycle 3: max grad = 1.067259e-08 ; sigma = 3.207106e-10
Cycle 4: max grad = 5.859426e-10 ; sigma = 4.547474e-13
Product_state fixed-point CI iteration converged after 4 cycles
Entering product-state fixed-point CI iteration
Cycle 0: max grad = 7.855962e-04 ; sigma = 0.000000e+00
Cycle 1: max grad = 4.493867e-14 ; sigma = 4.281758e-03
Cycle 2: max grad = 4.493867e-14 ; sigma = 0.000000e+00
Product_state fixed-point CI iteration converged after 2 cycles
Entering product-state fixed-point CI iteration
Cycle 0: max grad = 1.996901e-02 ; sigma = 0.000000e+00
Cycle 1: max grad = 9.125309e-05 ; sigma = 2.278600e-02
Cycle 2: max grad = 8.451364e-08 ; sigma = 1.203599e-07
Cycle 3: max grad = 1.409164e-10 ; sigma = 3.410605e-13
Product_state fixed-point CI iteration converged after 3 cycles
Entering product-state fixed-point CI iteration
Cycle 0: max grad = 1.911232e-02 ; sigma = 0.000000e+00
Cycle 1: max grad = 2.599765e-04 ; sigma = 2.125124e-02
Cycle 2: max grad = 2.972852e-07 ; sigma = 1.804487e-06
Cycle 3: max grad = 2.110234e-10 ; sigma = 1.818989e-12
Product_state fixed-point CI iteration converged after 3 cycles
Entering product-state fixed-point CI iteration
Cycle 0: max grad = 3.756029e-03 ; sigma = 0.000000e+00
Cycle 1: max grad = 2.843973e-04 ; sigma = 1.396658e-02
Cycle 2: max grad = 3.371536e-07 ; sigma = 2.125271e-06
Cycle 3: max grad = 2.248482e-10 ; sigma = 2.728484e-12
Product_state fixed-point CI iteration converged after 3 cycles
Entering product-state fixed-point CI iteration
Cycle 0: max grad = 2.511018e-03 ; sigma = 0.000000e+00
Cycle 1: max grad = 4.753311e-05 ; sigma = 1.399423e-02
Cycle 2: max grad = 3.727227e-08 ; sigma = 4.494586e-08
Cycle 3: max grad = 1.884153e-10 ; sigma = 4.547474e-13
Product_state fixed-point CI iteration converged after 3 cycles
Entering product-state fixed-point CI iteration
Cycle 0: max grad = 9.205383e-03 ; sigma = 0.000000e+00
Cycle 1: max grad = 1.906998e-04 ; sigma = 1.386118e-02
Cycle 2: max grad = 3.670920e-06 ; sigma = 5.171777e-06
Cycle 3: max grad = 1.044422e-08 ; sigma = 2.762590e-10
Cycle 4: max grad = 1.987595e-10 ; sigma = 2.273737e-13
Product_state fixed-point CI iteration converged after 4 cycles
Entering product-state fixed-point CI iteration
Cycle 0: max grad = 1.428547e-03 ; sigma = 0.000000e+00
Cycle 1: max grad = 4.044480e-14 ; sigma = 4.785084e-03
Cycle 2: max grad = 4.044480e-14 ; sigma = 5.684342e-14
Product_state fixed-point CI iteration converged after 2 cycles
Entering product-state fixed-point CI iteration
Cycle 0: max grad = 9.451974e-03 ; sigma = 0.000000e+00
Cycle 1: max grad = 6.454381e-05 ; sigma = 1.464128e-02
Cycle 2: max grad = 1.854578e-06 ; sigma = 1.014244e-06
Cycle 3: max grad = 1.088509e-08 ; sigma = 3.202558e-10
Cycle 4: max grad = 5.881579e-10 ; sigma = 3.410605e-13
Product_state fixed-point CI iteration converged after 4 cycles
Entering product-state fixed-point CI iteration
Cycle 0: max grad = 7.511434e-04 ; sigma = 0.000000e+00
Cycle 1: max grad = 8.987733e-15 ; sigma = 4.441783e-03
Cycle 2: max grad = 8.987733e-15 ; sigma = 0.000000e+00
Product_state fixed-point CI iteration converged after 2 cycles
Entering product-state fixed-point CI iteration
Cycle 0: max grad = 1.997865e-02 ; sigma = 0.000000e+00
Cycle 1: max grad = 6.323824e-05 ; sigma = 2.275212e-02
Cycle 2: max grad = 8.948845e-08 ; sigma = 9.511712e-08
Cycle 3: max grad = 1.145487e-10 ; sigma = 2.273737e-13
Product_state fixed-point CI iteration converged after 3 cycles
Entering product-state fixed-point CI iteration
Cycle 0: max grad = 1.912410e-02 ; sigma = 0.000000e+00
Cycle 1: max grad = 2.559147e-04 ; sigma = 2.115980e-02
Cycle 2: max grad = 2.883364e-07 ; sigma = 1.748316e-06
Cycle 3: max grad = 2.115813e-10 ; sigma = 2.501110e-12
Product_state fixed-point CI iteration converged after 3 cycles
Entering product-state fixed-point CI iteration
Cycle 0: max grad = 3.755703e-03 ; sigma = 0.000000e+00
Cycle 1: max grad = 2.880094e-04 ; sigma = 1.389553e-02
Cycle 2: max grad = 3.355927e-07 ; sigma = 2.179482e-06
Cycle 3: max grad = 2.340456e-10 ; sigma = 2.728484e-12
Product_state fixed-point CI iteration converged after 3 cycles
Entering product-state fixed-point CI iteration
Cycle 0: max grad = 2.510381e-03 ; sigma = 0.000000e+00
Cycle 1: max grad = 4.754481e-05 ; sigma = 1.393578e-02
Cycle 2: max grad = 3.821844e-08 ; sigma = 4.497610e-08
Cycle 3: max grad = 1.962388e-10 ; sigma = 2.273737e-13
Product_state fixed-point CI iteration converged after 3 cycles
Entering product-state fixed-point CI iteration
Cycle 0: max grad = 9.205369e-03 ; sigma = 0.000000e+00
Cycle 1: max grad = 1.878982e-04 ; sigma = 1.385498e-02
Cycle 2: max grad = 3.507488e-06 ; sigma = 5.019488e-06
Cycle 3: max grad = 9.778120e-09 ; sigma = 2.545448e-10
Cycle 4: max grad = 1.805247e-10 ; sigma = 3.410605e-13
Product_state fixed-point CI iteration converged after 4 cycles
Entering product-state fixed-point CI iteration
Cycle 0: max grad = 1.460596e-03 ; sigma = 0.000000e+00
Cycle 1: max grad = 3.145707e-14 ; sigma = 4.848960e-03
Cycle 2: max grad = 3.145707e-14 ; sigma = 0.000000e+00
Product_state fixed-point CI iteration converged after 2 cycles
Entering product-state fixed-point CI iteration
Cycle 0: max grad = 9.452718e-03 ; sigma = 0.000000e+00
Cycle 1: max grad = 6.660064e-05 ; sigma = 1.464381e-02
Cycle 2: max grad = 1.889132e-06 ; sigma = 1.027591e-06
Cycle 3: max grad = 1.138700e-08 ; sigma = 3.363994e-10
Cycle 4: max grad = 6.211569e-10 ; sigma = 2.273737e-13
Product_state fixed-point CI iteration converged after 4 cycles
Entering product-state fixed-point CI iteration
Cycle 0: max grad = 7.421358e-04 ; sigma = 0.000000e+00
Cycle 1: max grad = 4.493867e-15 ; sigma = 4.488545e-03
Cycle 2: max grad = 4.493867e-15 ; sigma = 0.000000e+00
Product_state fixed-point CI iteration converged after 2 cycles
Entering product-state fixed-point CI iteration
Cycle 0: max grad = 1.997405e-02 ; sigma = 0.000000e+00
Cycle 1: max grad = 6.321613e-05 ; sigma = 2.280069e-02
Cycle 2: max grad = 8.956648e-08 ; sigma = 9.508278e-08
Cycle 3: max grad = 1.134311e-10 ; sigma = 4.547474e-13
Product_state fixed-point CI iteration converged after 3 cycles
Entering product-state fixed-point CI iteration
Cycle 0: max grad = 1.911905e-02 ; sigma = 0.000000e+00
Cycle 1: max grad = 2.518540e-04 ; sigma = 2.122465e-02
Cycle 2: max grad = 2.794534e-07 ; sigma = 1.693058e-06
Cycle 3: max grad = 2.137801e-10 ; sigma = 2.046363e-12
Product_state fixed-point CI iteration converged after 3 cycles
Entering product-state fixed-point CI iteration
Cycle 0: max grad = 3.755376e-03 ; sigma = 0.000000e+00
Cycle 1: max grad = 2.916142e-04 ; sigma = 1.398841e-02
Cycle 2: max grad = 3.332366e-07 ; sigma = 2.234259e-06
Cycle 3: max grad = 2.452941e-10 ; sigma = 2.501110e-12
Product_state fixed-point CI iteration converged after 3 cycles
Entering product-state fixed-point CI iteration
Cycle 0: max grad = 2.509745e-03 ; sigma = 0.000000e+00
Cycle 1: max grad = 8.078260e-05 ; sigma = 1.397852e-02
Cycle 2: max grad = 5.866200e-08 ; sigma = 1.054437e-07
Cycle 3: max grad = 2.773233e-10 ; sigma = 1.136868e-13
Product_state fixed-point CI iteration converged after 3 cycles
Entering product-state fixed-point CI iteration
Cycle 0: max grad = 9.205355e-03 ; sigma = 0.000000e+00
Cycle 1: max grad = 1.842470e-04 ; sigma = 1.384877e-02
Cycle 2: max grad = 3.316931e-06 ; sigma = 4.828738e-06
Cycle 3: max grad = 9.044341e-09 ; sigma = 2.308980e-10
Cycle 4: max grad = 1.607987e-10 ; sigma = 1.136868e-13
Product_state fixed-point CI iteration converged after 4 cycles
Entering product-state fixed-point CI iteration
Cycle 0: max grad = 1.460718e-03 ; sigma = 0.000000e+00
Cycle 1: max grad = 1.797547e-14 ; sigma = 4.826788e-03
Cycle 2: max grad = 1.797547e-14 ; sigma = 1.136868e-13
Product_state fixed-point CI iteration converged after 2 cycles
Entering product-state fixed-point CI iteration
Cycle 0: max grad = 9.453463e-03 ; sigma = 0.000000e+00
Cycle 1: max grad = 6.864061e-05 ; sigma = 1.464635e-02
Cycle 2: max grad = 1.970012e-06 ; sigma = 1.064594e-06
Cycle 3: max grad = 1.220006e-08 ; sigma = 3.700507e-10
Cycle 4: max grad = 6.883694e-10 ; sigma = 3.410605e-13
Product_state fixed-point CI iteration converged after 4 cycles
Entering product-state fixed-point CI iteration
Cycle 0: max grad = 7.585733e-04 ; sigma = 0.000000e+00
Cycle 1: max grad = 3.595094e-14 ; sigma = 4.422044e-03
Cycle 2: max grad = 3.595094e-14 ; sigma = 5.684342e-14
Product_state fixed-point CI iteration converged after 2 cycles
Entering product-state fixed-point CI iteration
Cycle 0: max grad = 1.995521e-02 ; sigma = 0.000000e+00
Cycle 1: max grad = 9.106203e-05 ; sigma = 2.293170e-02
Cycle 2: max grad = 8.473376e-08 ; sigma = 1.197535e-07
Cycle 3: max grad = 1.383527e-10 ; sigma = 2.273737e-13
Product_state fixed-point CI iteration converged after 3 cycles
Entering product-state fixed-point CI iteration
Cycle 0: max grad = 1.909716e-02 ; sigma = 0.000000e+00
Cycle 1: max grad = 2.477997e-04 ; sigma = 2.144580e-02
Cycle 2: max grad = 2.706292e-07 ; sigma = 1.638782e-06
Cycle 3: max grad = 2.174148e-10 ; sigma = 2.046363e-12
Product_state fixed-point CI iteration converged after 3 cycles
Entering product-state fixed-point CI iteration
Cycle 0: max grad = 3.755049e-03 ; sigma = 0.000000e+00
Cycle 1: max grad = 2.952061e-04 ; sigma = 1.424532e-02
Cycle 2: max grad = 3.300447e-07 ; sigma = 2.289513e-06
Cycle 3: max grad = 2.590533e-10 ; sigma = 2.728484e-12
Product_state fixed-point CI iteration converged after 3 cycles
Entering product-state fixed-point CI iteration
Cycle 0: max grad = 9.205340e-03 ; sigma = 0.000000e+00
Cycle 1: max grad = 1.798168e-04 ; sigma = 1.384257e-02
Cycle 2: max grad = 3.101233e-06 ; sigma = 4.606505e-06
Cycle 3: max grad = 8.259907e-09 ; sigma = 2.055458e-10
Cycle 4: max grad = 1.399363e-10 ; sigma = 2.273737e-13
Product_state fixed-point CI iteration converged after 4 cycles
Entering product-state fixed-point CI iteration
Cycle 0: max grad = 1.428914e-03 ; sigma = 0.000000e+00
Cycle 1: max grad = 1.797547e-14 ; sigma = 4.718783e-03
Cycle 2: max grad = 8.987733e-15 ; sigma = 5.684342e-14
Product_state fixed-point CI iteration converged after 2 cycles
Entering product-state fixed-point CI iteration
Cycle 0: max grad = 9.454207e-03 ; sigma = 0.000000e+00
Cycle 1: max grad = 7.065949e-05 ; sigma = 1.464888e-02
Cycle 2: max grad = 2.108916e-06 ; sigma = 1.130573e-06
Cycle 3: max grad = 1.341870e-08 ; sigma = 4.293952e-10
Cycle 4: max grad = 8.046455e-10 ; sigma = 4.547474e-13
Product_state fixed-point CI iteration converged after 4 cycles
Entering product-state fixed-point CI iteration
Cycle 0: max grad = 8.004559e-04 ; sigma = 0.000000e+00
Cycle 1: max grad = 8.987734e-15 ; sigma = 4.242280e-03
Cycle 2: max grad = 4.493867e-15 ; sigma = 5.684342e-14
Product_state fixed-point CI iteration converged after 2 cycles
Entering product-state fixed-point CI iteration
Cycle 0: max grad = 1.909716e-02 ; sigma = 0.000000e+00
Cycle 1: max grad = 2.477997e-04 ; sigma = 2.144580e-02
Cycle 2: max grad = 2.706292e-07 ; sigma = 1.638782e-06
Cycle 3: max grad = 2.175296e-10 ; sigma = 1.932676e-12
Product_state fixed-point CI iteration converged after 3 cycles
Entering product-state fixed-point CI iteration
Cycle 0: max grad = 3.755376e-03 ; sigma = 0.000000e+00
Cycle 1: max grad = 2.916142e-04 ; sigma = 1.398841e-02
Cycle 2: max grad = 3.332366e-07 ; sigma = 2.234259e-06
Cycle 3: max grad = 2.454254e-10 ; sigma = 2.728484e-12
Product_state fixed-point CI iteration converged after 3 cycles
Entering product-state fixed-point CI iteration
Cycle 0: max grad = 2.511080e-03 ; sigma = 0.000000e+00
Cycle 1: max grad = 6.416325e-05 ; sigma = 1.398637e-02
Cycle 2: max grad = 4.806282e-08 ; sigma = 7.149845e-08
Cycle 3: max grad = 2.184291e-10 ; sigma = 3.410605e-13
Product_state fixed-point CI iteration converged after 3 cycles
Entering product-state fixed-point CI iteration
Cycle 0: max grad = 9.205340e-03 ; sigma = 0.000000e+00
Cycle 1: max grad = 1.798168e-04 ; sigma = 1.384257e-02
Cycle 2: max grad = 3.101233e-06 ; sigma = 4.606505e-06
Cycle 3: max grad = 8.259909e-09 ; sigma = 2.055458e-10
Cycle 4: max grad = 1.398419e-10 ; sigma = 2.273737e-13
Product_state fixed-point CI iteration converged after 4 cycles
Entering product-state fixed-point CI iteration
Cycle 0: max grad = 1.428914e-03 ; sigma = 0.000000e+00
Cycle 1: max grad = 8.987733e-15 ; sigma = 4.718783e-03
Cycle 2: max grad = 1.776357e-15 ; sigma = 5.684342e-14
Product_state fixed-point CI iteration converged after 2 cycles
Entering product-state fixed-point CI iteration
Cycle 0: max grad = 9.453463e-03 ; sigma = 0.000000e+00
Cycle 1: max grad = 6.864061e-05 ; sigma = 1.464635e-02
Cycle 2: max grad = 1.970012e-06 ; sigma = 1.064594e-06
Cycle 3: max grad = 1.220006e-08 ; sigma = 3.701643e-10
Cycle 4: max grad = 6.881560e-10 ; sigma = 2.273737e-13
Product_state fixed-point CI iteration converged after 4 cycles
Entering product-state fixed-point CI iteration
Cycle 0: max grad = 7.585733e-04 ; sigma = 0.000000e+00
Cycle 1: max grad = 3.595093e-14 ; sigma = 4.422044e-03
Cycle 2: max grad = 3.595093e-14 ; sigma = 5.684342e-14
Product_state fixed-point CI iteration converged after 2 cycles
Entering product-state fixed-point CI iteration
Cycle 0: max grad = 1.997153e-02 ; sigma = 0.000000e+00
Cycle 1: max grad = 7.251899e-05 ; sigma = 2.279334e-02
Cycle 2: max grad = 8.704202e-08 ; sigma = 9.241842e-08
Cycle 3: max grad = 1.202573e-10 ; sigma = 2.273737e-13
Product_state fixed-point CI iteration converged after 3 cycles
Entering product-state fixed-point CI iteration
Cycle 0: max grad = 1.911905e-02 ; sigma = 0.000000e+00
Cycle 1: max grad = 2.518540e-04 ; sigma = 2.122465e-02
Cycle 2: max grad = 2.794534e-07 ; sigma = 1.693058e-06
Cycle 3: max grad = 2.137473e-10 ; sigma = 2.160050e-12
Product_state fixed-point CI iteration converged after 3 cycles
Entering product-state fixed-point CI iteration
Cycle 0: max grad = 3.755703e-03 ; sigma = 0.000000e+00
Cycle 1: max grad = 2.880094e-04 ; sigma = 1.389553e-02
Cycle 2: max grad = 3.355927e-07 ; sigma = 2.179482e-06
Cycle 3: max grad = 2.339307e-10 ; sigma = 2.501110e-12
Product_state fixed-point CI iteration converged after 3 cycles
Entering product-state fixed-point CI iteration
Cycle 0: max grad = 2.511080e-03 ; sigma = 0.000000e+00
Cycle 1: max grad = 4.754558e-05 ; sigma = 1.393578e-02
Cycle 2: max grad = 3.728787e-08 ; sigma = 4.497701e-08
Cycle 3: max grad = 1.892781e-10 ; sigma = 1.136868e-13
Product_state fixed-point CI iteration converged after 3 cycles
Entering product-state fixed-point CI iteration
Cycle 0: max grad = 9.205355e-03 ; sigma = 0.000000e+00
Cycle 1: max grad = 1.842470e-04 ; sigma = 1.384877e-02
Cycle 2: max grad = 3.316931e-06 ; sigma = 4.828738e-06
Cycle 3: max grad = 9.044346e-09 ; sigma = 2.306706e-10
Cycle 4: max grad = 1.609012e-10 ; sigma = 2.273737e-13
Product_state fixed-point CI iteration converged after 4 cycles
Entering product-state fixed-point CI iteration
Cycle 0: max grad = 1.460718e-03 ; sigma = 0.000000e+00
Cycle 1: max grad = 1.797547e-14 ; sigma = 4.826788e-03
Cycle 2: max grad = 4.044480e-14 ; sigma = 1.705303e-13
Product_state fixed-point CI iteration converged after 2 cycles
Entering product-state fixed-point CI iteration
Cycle 0: max grad = 9.452718e-03 ; sigma = 0.000000e+00
Cycle 1: max grad = 6.660064e-05 ; sigma = 1.464381e-02
Cycle 2: max grad = 1.889132e-06 ; sigma = 1.027591e-06
Cycle 3: max grad = 1.138700e-08 ; sigma = 3.363994e-10
Cycle 4: max grad = 6.211077e-10 ; sigma = 5.684342e-13
Product_state fixed-point CI iteration converged after 4 cycles
Entering product-state fixed-point CI iteration
Cycle 0: max grad = 7.421358e-04 ; sigma = 0.000000e+00
Cycle 1: max grad = 4.493867e-15 ; sigma = 4.488545e-03
Cycle 2: max grad = 4.493867e-15 ; sigma = 5.684342e-14
Product_state fixed-point CI iteration converged after 2 cycles
Entering product-state fixed-point CI iteration
Cycle 0: max grad = 1.997865e-02 ; sigma = 0.000000e+00
Cycle 1: max grad = 6.323320e-05 ; sigma = 2.275212e-02
Cycle 2: max grad = 8.951159e-08 ; sigma = 9.513315e-08
Cycle 3: max grad = 1.141198e-10 ; sigma = 3.410605e-13
Product_state fixed-point CI iteration converged after 3 cycles
Entering product-state fixed-point CI iteration
Cycle 0: max grad = 1.912410e-02 ; sigma = 0.000000e+00
Cycle 1: max grad = 2.559147e-04 ; sigma = 2.115980e-02
Cycle 2: max grad = 2.883364e-07 ; sigma = 1.748316e-06
Cycle 3: max grad = 2.114008e-10 ; sigma = 2.273737e-12
Product_state fixed-point CI iteration converged after 3 cycles
Entering product-state fixed-point CI iteration
Cycle 0: max grad = 3.756029e-03 ; sigma = 0.000000e+00
Cycle 1: max grad = 2.843973e-04 ; sigma = 1.396658e-02
Cycle 2: max grad = 3.371536e-07 ; sigma = 2.125271e-06
Cycle 3: max grad = 2.246923e-10 ; sigma = 2.728484e-12
Product_state fixed-point CI iteration converged after 3 cycles
Entering product-state fixed-point CI iteration
Cycle 0: max grad = 2.511080e-03 ; sigma = 0.000000e+00
Cycle 1: max grad = 6.416325e-05 ; sigma = 1.398637e-02
Cycle 2: max grad = 4.806282e-08 ; sigma = 7.149845e-08
Cycle 3: max grad = 2.184284e-10 ; sigma = 3.410605e-13
Product_state fixed-point CI iteration converged after 3 cycles
Entering product-state fixed-point CI iteration
Cycle 0: max grad = 9.205369e-03 ; sigma = 0.000000e+00
Cycle 1: max grad = 1.878982e-04 ; sigma = 1.385498e-02
Cycle 2: max grad = 3.507488e-06 ; sigma = 5.019488e-06
Cycle 3: max grad = 9.778116e-09 ; sigma = 2.545448e-10
Cycle 4: max grad = 1.806026e-10 ; sigma = 9.094947e-13
Product_state fixed-point CI iteration converged after 4 cycles
Entering product-state fixed-point CI iteration
Cycle 0: max grad = 1.460596e-03 ; sigma = 0.000000e+00
Cycle 1: max grad = 3.145707e-14 ; sigma = 4.848960e-03
Cycle 2: max grad = 2.246933e-14 ; sigma = 5.684342e-14
Product_state fixed-point CI iteration converged after 2 cycles
Entering product-state fixed-point CI iteration
Cycle 0: max grad = 9.451974e-03 ; sigma = 0.000000e+00
Cycle 1: max grad = 6.454381e-05 ; sigma = 1.464128e-02
Cycle 2: max grad = 1.854578e-06 ; sigma = 1.014244e-06
Cycle 3: max grad = 1.088509e-08 ; sigma = 3.203695e-10
Cycle 4: max grad = 5.880922e-10 ; sigma = 4.547474e-13
Product_state fixed-point CI iteration converged after 4 cycles
Entering product-state fixed-point CI iteration
Cycle 0: max grad = 7.511434e-04 ; sigma = 0.000000e+00
Cycle 1: max grad = 8.987733e-15 ; sigma = 4.441783e-03
Cycle 2: max grad = 8.987733e-15 ; sigma = 0.000000e+00
Product_state fixed-point CI iteration converged after 2 cycles
Entering product-state fixed-point CI iteration
Cycle 0: max grad = 1.997153e-02 ; sigma = 0.000000e+00
Cycle 1: max grad = 7.251899e-05 ; sigma = 2.279334e-02
Cycle 2: max grad = 8.704202e-08 ; sigma = 9.241830e-08
Cycle 3: max grad = 1.202570e-10 ; sigma = 3.410605e-13
Product_state fixed-point CI iteration converged after 3 cycles
Entering product-state fixed-point CI iteration
Cycle 0: max grad = 1.911232e-02 ; sigma = 0.000000e+00
Cycle 1: max grad = 2.599765e-04 ; sigma = 2.125124e-02
Cycle 2: max grad = 2.972852e-07 ; sigma = 1.804487e-06
Cycle 3: max grad = 2.111054e-10 ; sigma = 2.501110e-12
Product_state fixed-point CI iteration converged after 3 cycles
Entering product-state fixed-point CI iteration
Cycle 0: max grad = 3.756356e-03 ; sigma = 0.000000e+00
Cycle 1: max grad = 2.807833e-04 ; sigma = 1.420156e-02
Cycle 2: max grad = 3.379646e-07 ; sigma = 2.071710e-06
Cycle 3: max grad = 2.168815e-10 ; sigma = 2.160050e-12
Product_state fixed-point CI iteration converged after 3 cycles
Entering product-state fixed-point CI iteration
Cycle 0: max grad = 2.511080e-03 ; sigma = 0.000000e+00
Cycle 1: max grad = 1.139999e-04 ; sigma = 1.413815e-02
Cycle 2: max grad = 8.257151e-08 ; sigma = 1.951904e-07
Cycle 3: max grad = 3.608634e-10 ; sigma = 6.821210e-13
Product_state fixed-point CI iteration converged after 3 cycles
Entering product-state fixed-point CI iteration
Cycle 0: max grad = 9.205383e-03 ; sigma = 0.000000e+00
Cycle 1: max grad = 1.906998e-04 ; sigma = 1.386118e-02
Cycle 2: max grad = 3.670920e-06 ; sigma = 5.171777e-06
Cycle 3: max grad = 1.044422e-08 ; sigma = 2.763727e-10
Cycle 4: max grad = 1.986220e-10 ; sigma = 4.547474e-13
Product_state fixed-point CI iteration converged after 4 cycles
Entering product-state fixed-point CI iteration
Cycle 0: max grad = 1.428547e-03 ; sigma = 0.000000e+00
Cycle 1: max grad = 4.044480e-14 ; sigma = 4.785084e-03
Cycle 2: max grad = 3.595093e-14 ; sigma = 5.684342e-14
Product_state fixed-point CI iteration converged after 2 cycles
Entering product-state fixed-point CI iteration
Cycle 0: max grad = 9.451229e-03 ; sigma = 0.000000e+00
Cycle 1: max grad = 6.247041e-05 ; sigma = 1.463874e-02
Cycle 2: max grad = 1.866072e-06 ; sigma = 1.024881e-06
Cycle 3: max grad = 1.067259e-08 ; sigma = 3.207106e-10
Cycle 4: max grad = 5.859262e-10 ; sigma = 1.136868e-13
Product_state fixed-point CI iteration converged after 4 cycles
Entering product-state fixed-point CI iteration
Cycle 0: max grad = 7.855962e-04 ; sigma = 0.000000e+00
Cycle 1: max grad = 4.493867e-14 ; sigma = 4.281758e-03
Cycle 2: max grad = 4.493867e-14 ; sigma = 1.136868e-13
Product_state fixed-point CI iteration converged after 2 cycles
Entering product-state fixed-point CI iteration
Cycle 0: max grad = 1.995017e-02 ; sigma = 0.000000e+00
Cycle 1: max grad = 1.285335e-04 ; sigma = 2.291700e-02
Cycle 2: max grad = 9.494257e-08 ; sigma = 2.415808e-07
Cycle 3: max grad = 2.058807e-10 ; sigma = 4.547474e-13
Product_state fixed-point CI iteration converged after 3 cycles
Entering product-state fixed-point CI iteration
Cycle 0: max grad = 1.908371e-02 ; sigma = 0.000000e+00
Cycle 1: max grad = 2.640342e-04 ; sigma = 2.149907e-02
Cycle 2: max grad = 3.063087e-07 ; sigma = 1.861499e-06
Cycle 3: max grad = 2.131894e-10 ; sigma = 2.160050e-12
Product_state fixed-point CI iteration converged after 3 cycles
Entering product-state fixed-point CI iteration
Cycle 0: max grad = 9.205398e-03 ; sigma = 0.000000e+00
Cycle 1: max grad = 1.925413e-04 ; sigma = 1.386739e-02
Cycle 2: max grad = 3.806094e-06 ; sigma = 5.281134e-06
Cycle 3: max grad = 1.102494e-08 ; sigma = 2.946763e-10
Cycle 4: max grad = 2.150600e-10 ; sigma = 4.547474e-13
Product_state fixed-point CI iteration converged after 4 cycles
Entering product-state fixed-point CI iteration
Cycle 0: max grad = 1.364572e-03 ; sigma = 0.000000e+00
Cycle 1: max grad = 1.348160e-14 ; sigma = 4.635324e-03
Cycle 2: max grad = 1.348160e-14 ; sigma = 1.136868e-13
Product_state fixed-point CI iteration converged after 2 cycles
Entering product-state fixed-point CI iteration
Cycle 0: max grad = 3.754842e-03 ; sigma = 0.000000e+00
Cycle 1: max grad = 2.990640e-04 ; sigma = 1.401026e-02
Cycle 2: max grad = 3.292346e-07 ; sigma = 2.351716e-06
Cycle 3: max grad = 2.769980e-10 ; sigma = 3.069545e-12
Product_state fixed-point CI iteration converged after 3 cycles
Entering product-state fixed-point CI iteration
Cycle 0: max grad = 2.509745e-03 ; sigma = 0.000000e+00
Cycle 1: max grad = 8.078260e-05 ; sigma = 1.397852e-02
Cycle 2: max grad = 5.866200e-08 ; sigma = 1.054436e-07
Cycle 3: max grad = 2.773262e-10 ; sigma = 3.410605e-13
Product_state fixed-point CI iteration converged after 3 cycles
Entering product-state fixed-point CI iteration
Cycle 0: max grad = 9.477517e-03 ; sigma = 0.000000e+00
Cycle 1: max grad = 7.255663e-05 ; sigma = 1.470371e-02
Cycle 2: max grad = 2.090308e-06 ; sigma = 1.116524e-06
Cycle 3: max grad = 1.363645e-08 ; sigma = 4.265530e-10
Cycle 4: max grad = 8.026859e-10 ; sigma = 2.273737e-13
Product_state fixed-point CI iteration converged after 4 cycles
Entering product-state fixed-point CI iteration
Cycle 0: max grad = 7.660031e-04 ; sigma = 0.000000e+00
Cycle 1: max grad = 6.355287e-15 ; sigma = 4.402305e-03
Cycle 2: max grad = 6.355287e-15 ; sigma = 5.684342e-14
Product_state fixed-point CI iteration converged after 2 cycles
Entering product-state fixed-point CI iteration
Cycle 0: max grad = 1.995521e-02 ; sigma = 0.000000e+00
Cycle 1: max grad = 9.106203e-05 ; sigma = 2.293170e-02
Cycle 2: max grad = 8.473376e-08 ; sigma = 1.197535e-07
Cycle 3: max grad = 1.383528e-10 ; sigma = 2.273737e-13
Product_state fixed-point CI iteration converged after 3 cycles
Entering product-state fixed-point CI iteration
Cycle 0: max grad = 1.911062e-02 ; sigma = 0.000000e+00
Cycle 1: max grad = 2.317204e-04 ; sigma = 2.139268e-02
Cycle 2: max grad = 2.490766e-07 ; sigma = 1.434456e-06
Cycle 3: max grad = 2.605418e-10 ; sigma = 2.160050e-12
Product_state fixed-point CI iteration converged after 3 cycles
Entering product-state fixed-point CI iteration
Cycle 0: max grad = 3.755822e-03 ; sigma = 0.000000e+00
Cycle 1: max grad = 2.882384e-04 ; sigma = 1.389553e-02
Cycle 2: max grad = 3.361454e-07 ; sigma = 2.184898e-06
Cycle 3: max grad = 2.347917e-10 ; sigma = 2.160050e-12
Product_state fixed-point CI iteration converged after 3 cycles
Entering product-state fixed-point CI iteration
Cycle 0: max grad = 2.510381e-03 ; sigma = 0.000000e+00
Cycle 1: max grad = 4.754481e-05 ; sigma = 1.393578e-02
Cycle 2: max grad = 3.821844e-08 ; sigma = 4.497610e-08
Cycle 3: max grad = 1.962358e-10 ; sigma = 3.410605e-13
Product_state fixed-point CI iteration converged after 3 cycles
Entering product-state fixed-point CI iteration
Cycle 0: max grad = 9.209298e-03 ; sigma = 0.000000e+00
Cycle 1: max grad = 1.668673e-04 ; sigma = 1.388578e-02
Cycle 2: max grad = 2.449827e-06 ; sigma = 3.983173e-06
Cycle 3: max grad = 5.966466e-09 ; sigma = 1.429044e-10
Cycle 4: max grad = 8.236611e-11 ; sigma = 4.547474e-13
Product_state fixed-point CI iteration converged after 4 cycles
Entering product-state fixed-point CI iteration
Cycle 0: max grad = 1.493256e-03 ; sigma = 0.000000e+00
Cycle 1: max grad = 6.355287e-15 ; sigma = 4.802884e-03
Cycle 2: max grad = 6.355287e-15 ; sigma = 5.684342e-14
Product_state fixed-point CI iteration converged after 2 cycles
Entering product-state fixed-point CI iteration
Cycle 0: max grad = 9.475283e-03 ; sigma = 0.000000e+00
Cycle 1: max grad = 6.643666e-05 ; sigma = 1.469609e-02
Cycle 2: max grad = 1.888935e-06 ; sigma = 1.027642e-06
Cycle 3: max grad = 1.134247e-08 ; sigma = 3.354899e-10
Cycle 4: max grad = 6.187406e-10 ; sigma = 3.410605e-13
Product_state fixed-point CI iteration converged after 4 cycles
Entering product-state fixed-point CI iteration
Cycle 0: max grad = 7.421358e-04 ; sigma = 0.000000e+00
Cycle 1: max grad = 1.271058e-14 ; sigma = 4.488545e-03
Cycle 2: max grad = 1.271058e-14 ; sigma = 1.136868e-13
Product_state fixed-point CI iteration converged after 2 cycles
Entering product-state fixed-point CI iteration
Cycle 0: max grad = 1.997405e-02 ; sigma = 0.000000e+00
Cycle 1: max grad = 6.321613e-05 ; sigma = 2.280069e-02
Cycle 2: max grad = 8.956648e-08 ; sigma = 9.508278e-08
Cycle 3: max grad = 1.134311e-10 ; sigma = 2.273737e-13
Product_state fixed-point CI iteration converged after 3 cycles
Entering product-state fixed-point CI iteration
Cycle 0: max grad = 1.912578e-02 ; sigma = 0.000000e+00
Cycle 1: max grad = 2.439098e-04 ; sigma = 2.119811e-02
Cycle 2: max grad = 2.625453e-07 ; sigma = 1.589944e-06
Cycle 3: max grad = 2.265779e-10 ; sigma = 2.160050e-12
Product_state fixed-point CI iteration converged after 3 cycles
Entering product-state fixed-point CI iteration
Cycle 0: max grad = 3.756803e-03 ; sigma = 0.000000e+00
Cycle 1: max grad = 2.773920e-04 ; sigma = 1.394477e-02
Cycle 2: max grad = 3.410037e-07 ; sigma = 2.023886e-06
Cycle 3: max grad = 2.138165e-10 ; sigma = 2.046363e-12
Product_state fixed-point CI iteration converged after 3 cycles
Entering product-state fixed-point CI iteration
Cycle 0: max grad = 2.511018e-03 ; sigma = 0.000000e+00
Cycle 1: max grad = 4.753311e-05 ; sigma = 1.399423e-02
Cycle 2: max grad = 3.727227e-08 ; sigma = 4.494586e-08
Cycle 3: max grad = 1.884191e-10 ; sigma = 3.410605e-13
Product_state fixed-point CI iteration converged after 3 cycles
Entering product-state fixed-point CI iteration
Cycle 0: max grad = 9.209341e-03 ; sigma = 0.000000e+00
Cycle 1: max grad = 1.777801e-04 ; sigma = 1.390440e-02
Cycle 2: max grad = 2.975283e-06 ; sigma = 4.500729e-06
Cycle 3: max grad = 7.751677e-09 ; sigma = 1.919034e-10
Cycle 4: max grad = 1.277343e-10 ; sigma = 2.273737e-13
Product_state fixed-point CI iteration converged after 4 cycles
Entering product-state fixed-point CI iteration
Cycle 0: max grad = 1.492889e-03 ; sigma = 0.000000e+00
Cycle 1: max grad = 6.355287e-15 ; sigma = 4.868652e-03
Cycle 2: max grad = 1.271057e-14 ; sigma = 1.136868e-13
Product_state fixed-point CI iteration converged after 2 cycles
Entering product-state fixed-point CI iteration
Cycle 0: max grad = 9.473049e-03 ; sigma = 0.000000e+00
Cycle 1: max grad = 6.028918e-05 ; sigma = 1.468848e-02
Cycle 2: max grad = 1.743798e-06 ; sigma = 9.654334e-07
Cycle 3: max grad = 9.691284e-09 ; sigma = 2.762590e-10
Cycle 4: max grad = 5.007337e-10 ; sigma = 4.547474e-13
Product_state fixed-point CI iteration converged after 4 cycles
Entering product-state fixed-point CI iteration
Cycle 0: max grad = 7.437136e-04 ; sigma = 0.000000e+00
Cycle 1: max grad = 1.271058e-14 ; sigma = 4.461522e-03
Cycle 2: max grad = 1.271058e-14 ; sigma = 1.136868e-13
Product_state fixed-point CI iteration converged after 2 cycles
Entering product-state fixed-point CI iteration
Cycle 0: max grad = 1.997865e-02 ; sigma = 0.000000e+00
Cycle 1: max grad = 6.323824e-05 ; sigma = 2.275212e-02
Cycle 2: max grad = 8.948845e-08 ; sigma = 9.511689e-08
Cycle 3: max grad = 1.145487e-10 ; sigma = 2.273737e-13
Product_state fixed-point CI iteration converged after 3 cycles
Entering product-state fixed-point CI iteration
Cycle 0: max grad = 1.912410e-02 ; sigma = 0.000000e+00
Cycle 1: max grad = 2.561003e-04 ; sigma = 2.115980e-02
Cycle 2: max grad = 2.887359e-07 ; sigma = 1.753516e-06
Cycle 3: max grad = 2.115428e-10 ; sigma = 2.160050e-12
Product_state fixed-point CI iteration converged after 3 cycles
Entering product-state fixed-point CI iteration
Cycle 0: max grad = 3.757784e-03 ; sigma = 0.000000e+00
Cycle 1: max grad = 2.665411e-04 ; sigma = 1.415790e-02
Cycle 2: max grad = 3.439386e-07 ; sigma = 1.868948e-06
Cycle 3: max grad = 2.113723e-10 ; sigma = 2.614797e-12
Product_state fixed-point CI iteration converged after 3 cycles
Entering product-state fixed-point CI iteration
Cycle 0: max grad = 2.511654e-03 ; sigma = 0.000000e+00
Cycle 1: max grad = 8.076715e-05 ; sigma = 1.415386e-02
Cycle 2: max grad = 5.861480e-08 ; sigma = 1.052673e-07
Cycle 3: max grad = 2.431934e-10 ; sigma = 3.410605e-13
Product_state fixed-point CI iteration converged after 3 cycles
Entering product-state fixed-point CI iteration
Cycle 0: max grad = 9.209384e-03 ; sigma = 0.000000e+00
Cycle 1: max grad = 1.879551e-04 ; sigma = 1.392302e-02
Cycle 2: max grad = 3.506226e-06 ; sigma = 5.022444e-06
Cycle 3: max grad = 9.756007e-09 ; sigma = 2.542038e-10
Cycle 4: max grad = 1.801084e-10 ; sigma = 5.684342e-13
Product_state fixed-point CI iteration converged after 4 cycles
Entering product-state fixed-point CI iteration
Cycle 0: max grad = 1.460596e-03 ; sigma = 0.000000e+00
Cycle 1: max grad = 2.542115e-14 ; sigma = 4.848960e-03
Cycle 2: max grad = 2.542115e-14 ; sigma = 5.684342e-14
Product_state fixed-point CI iteration converged after 2 cycles
Entering product-state fixed-point CI iteration
Cycle 0: max grad = 9.470815e-03 ; sigma = 0.000000e+00
Cycle 1: max grad = 5.411856e-05 ; sigma = 1.468088e-02
Cycle 2: max grad = 1.643849e-06 ; sigma = 9.257298e-07
Cycle 3: max grad = 8.538566e-09 ; sigma = 2.402203e-10
Cycle 4: max grad = 4.275762e-10 ; sigma = 4.547474e-13
Product_state fixed-point CI iteration converged after 4 cycles
Entering product-state fixed-point CI iteration
Cycle 0: max grad = 7.707365e-04 ; sigma = 0.000000e+00
Cycle 1: max grad = 1.906586e-14 ; sigma = 4.321237e-03
Cycle 2: max grad = 1.906586e-14 ; sigma = 5.684342e-14
Product_state fixed-point CI iteration converged after 2 cycles
Entering product-state fixed-point CI iteration
Cycle 0: max grad = 1.996901e-02 ; sigma = 0.000000e+00
Cycle 1: max grad = 9.125309e-05 ; sigma = 2.278600e-02
Cycle 2: max grad = 8.451364e-08 ; sigma = 1.203601e-07
Cycle 3: max grad = 1.409168e-10 ; sigma = 4.547474e-13
Product_state fixed-point CI iteration converged after 3 cycles
Entering product-state fixed-point CI iteration
Cycle 0: max grad = 1.910559e-02 ; sigma = 0.000000e+00
Cycle 1: max grad = 2.682763e-04 ; sigma = 2.127786e-02
Cycle 2: max grad = 3.161280e-07 ; sigma = 1.924962e-06
Cycle 3: max grad = 2.198419e-10 ; sigma = 2.273737e-12
Product_state fixed-point CI iteration converged after 3 cycles
Entering product-state fixed-point CI iteration
Cycle 0: max grad = 9.209427e-03 ; sigma = 0.000000e+00
Cycle 1: max grad = 1.971433e-04 ; sigma = 1.394164e-02
Cycle 2: max grad = 4.036619e-06 ; sigma = 5.530261e-06
Cycle 3: max grad = 1.194584e-08 ; sigma = 3.279865e-10
Cycle 4: max grad = 2.419753e-10 ; sigma = 4.547474e-13
Product_state fixed-point CI iteration converged after 4 cycles
Entering product-state fixed-point CI iteration
Cycle 0: max grad = 1.396376e-03 ; sigma = 0.000000e+00
Cycle 1: max grad = 1.271058e-14 ; sigma = 4.743543e-03
Cycle 2: max grad = 1.271058e-14 ; sigma = 5.684342e-14
Product_state fixed-point CI iteration converged after 2 cycles
Entering product-state fixed-point CI iteration
Cycle 0: max grad = 2.508285e-03 ; sigma = 0.000000e+00
Cycle 1: max grad = 4.754250e-05 ; sigma = 1.393578e-02
Cycle 2: max grad = 4.299715e-08 ; sigma = 4.497213e-08
Cycle 3: max grad = 2.207767e-10 ; sigma = 2.273737e-13
Product_state fixed-point CI iteration converged after 3 cycles
Entering product-state fixed-point CI iteration
Cycle 0: max grad = 7.421358e-04 ; sigma = 0.000000e+00
Cycle 1: max grad = 3.625979e-15 ; sigma = 4.488545e-03
Cycle 2: max grad = 2.976138e-15 ; sigma = 1.136868e-13
Product_state fixed-point CI iteration converged after 2 cycles
Entering product-state fixed-point CI iteration
Cycle 0: max grad = 1.996025e-02 ; sigma = 0.000000e+00
Cycle 1: max grad = 6.316490e-05 ; sigma = 2.294645e-02
Cycle 2: max grad = 8.973022e-08 ; sigma = 9.493112e-08
Cycle 3: max grad = 1.114037e-10 ; sigma = 3.410605e-13
Product_state fixed-point CI iteration converged after 3 cycles
Entering product-state fixed-point CI iteration
Cycle 0: max grad = 2.509558e-03 ; sigma = 0.000000e+00
Cycle 1: max grad = 4.375945e-05 ; sigma = 1.400209e-02
Cycle 2: max grad = 3.365212e-08 ; sigma = 2.580111e-08
Cycle 3: max grad = 1.740605e-10 ; sigma = 2.273737e-13
Product_state fixed-point CI iteration converged after 3 cycles
Entering product-state fixed-point CI iteration
Cycle 0: max grad = 1.557598e-03 ; sigma = 0.000000e+00
Cycle 1: max grad = 1.776357e-15 ; sigma = 4.887580e-03
Cycle 2: max grad = 4.582272e-15 ; sigma = 5.684342e-14
Product_state fixed-point CI iteration converged after 2 cycles
Entering product-state fixed-point CI iteration
Cycle 0: max grad = 7.362837e-04 ; sigma = 0.000000e+00
Cycle 1: max grad = 2.834877e-15 ; sigma = 4.481262e-03
Cycle 2: max grad = 1.986028e-15 ; sigma = 1.705303e-13
Product_state fixed-point CI iteration converged after 2 cycles
Entering product-state fixed-point CI iteration
Cycle 0: max grad = 1.997657e-02 ; sigma = 0.000000e+00
Cycle 1: max grad = 6.411143e-05 ; sigma = 2.280804e-02
Cycle 2: max grad = 9.208344e-08 ; sigma = 9.775761e-08
Cycle 3: max grad = 1.296303e-10 ; sigma = 4.547474e-13
Product_state fixed-point CI iteration converged after 3 cycles
Entering product-state fixed-point CI iteration
Cycle 0: max grad = 2.510830e-03 ; sigma = 0.000000e+00
Cycle 1: max grad = 4.749575e-05 ; sigma = 1.416960e-02
Cycle 2: max grad = 3.722546e-08 ; sigma = 4.485094e-08
Cycle 3: max grad = 1.858808e-10 ; sigma = 4.547474e-13
Product_state fixed-point CI iteration converged after 3 cycles
Entering product-state fixed-point CI iteration
Cycle 0: max grad = 1.525060e-03 ; sigma = 0.000000e+00
Cycle 1: max grad = 2.803313e-15 ; sigma = 4.910668e-03
Cycle 2: max grad = 4.323934e-15 ; sigma = 0.000000e+00
Product_state fixed-point CI iteration converged after 2 cycles
Entering product-state fixed-point CI iteration
Cycle 0: max grad = 7.558767e-04 ; sigma = 0.000000e+00
Cycle 1: max grad = 6.579860e-15 ; sigma = 4.360715e-03
Cycle 2: max grad = 6.565766e-15 ; sigma = 5.684342e-14
Product_state fixed-point CI iteration converged after 2 cycles
Entering product-state fixed-point CI iteration
Cycle 0: max grad = 1.997865e-02 ; sigma = 0.000000e+00
Cycle 1: max grad = 6.325334e-05 ; sigma = 2.275212e-02
Cycle 2: max grad = 8.941910e-08 ; sigma = 9.506812e-08
Cycle 3: max grad = 1.158867e-10 ; sigma = 2.273737e-13
Product_state fixed-point CI iteration converged after 3 cycles
Entering product-state fixed-point CI iteration
Cycle 0: max grad = 1.460596e-03 ; sigma = 0.000000e+00
Cycle 1: max grad = 5.672178e-15 ; sigma = 4.848960e-03
Cycle 2: max grad = 2.175574e-15 ; sigma = 5.684342e-14
Product_state fixed-point CI iteration converged after 2 cycles
Printing a maximum of 100 state energies; increase self.verbose to see them all
LASSCF state-average energy = -4992.23193779053
LASSCF state 0 energy = -4992.23193779053
LASSCF state 1 energy = -4992.23227498731
LASSCF state 2 energy = -4992.23255040351
LASSCF state 3 energy = -4992.23255587738
LASSCF state 4 energy = -4992.2322914089
LASSCF state 5 energy = -4992.23218738253
LASSCF state 6 energy = -4992.23259503297
LASSCF state 7 energy = -4992.23273274107
LASSCF state 8 energy = -4992.23260050683
LASSCF state 9 energy = -4992.23219833025
LASSCF state 10 energy = -4992.23247767522
LASSCF state 11 energy = -4992.23274761756
LASSCF state 12 energy = -4992.23274761756
LASSCF state 13 energy = -4992.23247767522
LASSCF state 14 energy = -4992.23193779053
LASSCF state 15 energy = -4992.23219833025
LASSCF state 16 energy = -4992.23260050683
LASSCF state 17 energy = -4992.23273274107
LASSCF state 18 energy = -4992.23259503297
LASSCF state 19 energy = -4992.23218738253
LASSCF state 20 energy = -4992.2322914089
LASSCF state 21 energy = -4992.23255587738
LASSCF state 22 energy = -4992.23255040351
LASSCF state 23 energy = -4992.23227498731
LASSCF state 24 energy = -4991.66618109952
LASSCF state 25 energy = -4739.53744675011
LASSCF state 26 energy = -4991.14421097477
LASSCF state 27 energy = -4991.37061648836
LASSCF state 28 energy = -4991.64896541432
LASSCF state 29 energy = -4739.5191664744
LASSCF state 30 energy = -4991.13783320959
LASSCF state 31 energy = -4991.34965959197
LASSCF state 32 energy = -4739.53772674696
LASSCF state 33 energy = -4991.13783708952
LASSCF state 34 energy = -4991.14451220451
LASSCF state 35 energy = -4991.37074051458
LASSCF state 36 energy = -4991.66640709988
LASSCF state 37 energy = -4739.53764053178
LASSCF state 38 energy = -4991.6494153857
LASSCF state 39 energy = -4739.51955464395
LASSCF state 40 energy = -4991.34960639186
LASSCF state 41 energy = -4739.53797863797
LASSCF state 42 energy = -4739.51953940143
LASSCF state 43 energy = -4991.13810184502
LASSCF state 44 energy = -4991.144585655
LASSCF state 45 energy = -4991.37073320102
LASSCF state 46 energy = -4991.66675597429
LASSCF state 47 energy = -4739.53801226326
LASSCF state 48 energy = -4991.64960946838
LASSCF state 49 energy = -4739.51976876501
LASSCF state 50 energy = -4991.34975816046
LASSCF state 51 energy = -4739.53795547927
LASSCF state 52 energy = -4739.51962159212
LASSCF state 53 energy = -4991.13820204542
LASSCF state 54 energy = -4991.14449424496
LASSCF state 55 energy = -4991.37057741073
LASSCF state 56 energy = -4991.66682935127
LASSCF state 57 energy = -4739.53810801389
LASSCF state 58 energy = -4991.64952887264
LASSCF state 59 energy = -4739.51970820841
LASSCF state 60 energy = -4991.34976202743
LASSCF state 61 energy = -4739.51942910519
LASSCF state 62 energy = -4991.13813758738
LASSCF state 63 energy = -4991.14423806831
LASSCF state 64 energy = -4991.66662710443
LASSCF state 65 energy = -4739.53792805051
LASSCF state 66 energy = -4991.64917359846
LASSCF state 67 energy = -4739.51937297416
LASSCF state 68 energy = -4991.14444260395
LASSCF state 69 energy = -4991.37076241212
LASSCF state 70 energy = -4991.64925599628
LASSCF state 71 energy = -4739.51943033494
LASSCF state 72 energy = -4991.34968135445
LASSCF state 73 energy = -4991.13814089214
LASSCF state 74 energy = -4991.14463189574
LASSCF state 75 energy = -4991.3708700876
LASSCF state 76 energy = -4991.66666516769
LASSCF state 77 energy = -4739.53793895496
LASSCF state 78 energy = -4991.64959536856
LASSCF state 79 energy = -4739.51977638632
LASSCF state 80 energy = -4991.34986809999
LASSCF state 81 energy = -4991.13828403719
LASSCF state 82 energy = -4991.14465637491
LASSCF state 83 energy = -4991.37082931642
LASSCF state 84 energy = -4991.6668735484
LASSCF state 85 energy = -4739.53815502141
LASSCF state 86 energy = -4991.64966006232
LASSCF state 87 energy = -4739.51984776001
LASSCF state 88 energy = -4991.34990698997
LASSCF state 89 energy = -4991.13826255121
LASSCF state 90 energy = -4991.1445160271
LASSCF state 91 energy = -4991.37064013605
LASSCF state 92 energy = -4991.66680592119
LASSCF state 93 energy = -4739.53809478431
LASSCF state 94 energy = -4991.64945007757
LASSCF state 95 energy = -4739.51964445603
LASSCF state 96 energy = -4991.34979796471
LASSCF state 97 energy = -4991.13807642942
LASSCF state 98 energy = -4991.14421097477
LASSCF state 99 energy = -4991.66646237366
LASSCF state 100 energy = -4739.53775845857
LASSCF state 101 energy = -4991.64896541432
LASSCF state 102 energy = -4739.5191664744
LASSCF state 103 energy = -4991.13807642942
LASSCF state 104 energy = -4991.1445160271
LASSCF state 105 energy = -4991.37083906584
LASSCF state 106 energy = -4991.66646237366
LASSCF state 107 energy = -4739.53775845857
LASSCF state 108 energy = -4991.64945007757
LASSCF state 109 energy = -4739.51964445603
LASSCF state 110 energy = -4991.34988138798
LASSCF state 111 energy = -4991.13826255121
LASSCF state 112 energy = -4991.14465637491
LASSCF state 113 energy = -4991.37091328506
LASSCF state 114 energy = -4991.66680592119
LASSCF state 115 energy = -4739.53809478431
LASSCF state 116 energy = -4991.64966006232
LASSCF state 117 energy = -4739.51984776001
LASSCF state 118 energy = -4991.34995533604
LASSCF state 119 energy = -4991.13828403719
LASSCF state 120 energy = -4991.14463189574
LASSCF state 121 energy = -4991.37083906584
LASSCF state 122 energy = -4991.6668735484
LASSCF state 123 energy = -4739.53815502141
LASSCF state 124 energy = -4991.64959536856
LASSCF state 125 energy = -4739.51977638632
LASSCF state 126 energy = -4991.34988138798
LASSCF state 127 energy = -4991.13814089214
LASSCF state 128 energy = -4991.14444260395
LASSCF state 129 energy = -4991.37061648836
LASSCF state 130 energy = -4991.66666516769
LASSCF state 131 energy = -4739.53793895496
LASSCF state 132 energy = -4991.64925599628
LASSCF state 133 energy = -4739.51943033494
LASSCF state 134 energy = -4991.34965959197
LASSCF state 135 energy = -4991.13783320959
LASSCF state 136 energy = -4991.66618109952
LASSCF state 137 energy = -4739.53744675011
LASSCF state 138 energy = -4991.14423806831
LASSCF state 139 energy = -4991.37064013605
LASSCF state 140 energy = -4991.64917359846
LASSCF state 141 energy = -4739.51937297416
LASSCF state 142 energy = -4991.34979796471
LASSCF state 143 energy = -4991.13813758738
LASSCF state 144 energy = -4991.14449424496
LASSCF state 145 energy = -4991.37082931642
LASSCF state 146 energy = -4991.66662710443
LASSCF state 147 energy = -4739.53792805051
LASSCF state 148 energy = -4991.64952887264
LASSCF state 149 energy = -4739.51970820841
LASSCF state 150 energy = -4991.34990698997
LASSCF state 151 energy = -4991.13820204542
LASSCF state 152 energy = -4991.144585655
LASSCF state 153 energy = -4991.3708700876
LASSCF state 154 energy = -4991.66682935127
LASSCF state 155 energy = -4739.53810801389
LASSCF state 156 energy = -4991.64960946838
LASSCF state 157 energy = -4739.51976876501
LASSCF state 158 energy = -4991.34986809999
LASSCF state 159 energy = -4991.13810184502
LASSCF state 160 energy = -4991.14451220451
LASSCF state 161 energy = -4991.37076241213
LASSCF state 162 energy = -4991.66675597429
LASSCF state 163 energy = -4739.53801226326
LASSCF state 164 energy = -4991.6494153857
LASSCF state 165 energy = -4739.51955464395
LASSCF state 166 energy = -4991.34968135445
LASSCF state 167 energy = -4991.13783708952
LASSCF state 168 energy = -4991.66640709988
LASSCF state 169 energy = -4739.53764053178
LASSCF state 170 energy = -4991.37057741073
LASSCF state 171 energy = -4739.51942910519
LASSCF state 172 energy = -4991.34976202743
LASSCF state 173 energy = -4991.37073320102
LASSCF state 174 energy = -4739.53795547927
LASSCF state 175 energy = -4739.51962159212
LASSCF state 176 energy = -4991.34975816046
LASSCF state 177 energy = -4991.37074051458
LASSCF state 178 energy = -4739.53797863797
LASSCF state 179 energy = -4739.51953940143
LASSCF state 180 energy = -4991.34960639186
LASSCF state 181 energy = -4739.53772674696
Entering product-state fixed-point CI iteration
Cycle 0: max grad = 3.812076e+03 ; sigma = 0.000000e+00
Cycle 1: max grad = 1.073288e-13 ; sigma = 0.000000e+00
Product_state fixed-point CI iteration converged after 1 cycles
Entering product-state fixed-point CI iteration
Cycle 0: max grad = 4.609278e+03 ; sigma = 0.000000e+00
Cycle 1: max grad = 3.703704e-13 ; sigma = 2.273737e-13
Product_state fixed-point CI iteration converged after 1 cycles
Entering product-state fixed-point CI iteration
Cycle 0: max grad = 4.317330e+03 ; sigma = 0.000000e+00
Cycle 1: max grad = 1.634248e-13 ; sigma = 2.273737e-13
Product_state fixed-point CI iteration converged after 1 cycles
Entering product-state fixed-point CI iteration
Cycle 0: max grad = 3.442270e+03 ; sigma = 0.000000e+00
Cycle 1: max grad = 1.136868e-13 ; sigma = 1.136868e-13
Product_state fixed-point CI iteration converged after 1 cycles
Entering product-state fixed-point CI iteration
Cycle 0: max grad = 3.580402e+03 ; sigma = 0.000000e+00
Cycle 1: max grad = 1.136868e-13 ; sigma = 1.136868e-13
Product_state fixed-point CI iteration converged after 1 cycles
Entering product-state fixed-point CI iteration
Cycle 0: max grad = 4.596232e+03 ; sigma = 0.000000e+00
Cycle 1: max grad = 9.103829e-14 ; sigma = 0.000000e+00
Product_state fixed-point CI iteration converged after 1 cycles
Entering product-state fixed-point CI iteration
Cycle 0: max grad = 4.407235e+03 ; sigma = 0.000000e+00
Cycle 1: max grad = 1.136868e-13 ; sigma = 0.000000e+00
Product_state fixed-point CI iteration converged after 1 cycles
Entering product-state fixed-point CI iteration
Cycle 0: max grad = 3.811427e+03 ; sigma = 0.000000e+00
Cycle 1: max grad = 1.136868e-13 ; sigma = 1.136868e-13
Product_state fixed-point CI iteration converged after 1 cycles
Entering product-state fixed-point CI iteration
Cycle 0: max grad = 3.542365e+03 ; sigma = 0.000000e+00
Cycle 1: max grad = 8.526513e-14 ; sigma = 0.000000e+00
Product_state fixed-point CI iteration converged after 1 cycles
Entering product-state fixed-point CI iteration
Cycle 0: max grad = 3.630107e+03 ; sigma = 0.000000e+00
Cycle 1: max grad = 1.003642e-13 ; sigma = 2.273737e-13
Product_state fixed-point CI iteration converged after 1 cycles
Entering product-state fixed-point CI iteration
Cycle 0: max grad = 3.812076e+03 ; sigma = 0.000000e+00
Cycle 1: max grad = 8.702336e-14 ; sigma = 1.136868e-13
Product_state fixed-point CI iteration converged after 1 cycles
Entering product-state fixed-point CI iteration
Cycle 0: max grad = 3.812076e+03 ; sigma = 0.000000e+00
Cycle 1: max grad = 2.262607e-13 ; sigma = 1.136868e-13
Product_state fixed-point CI iteration converged after 1 cycles
Entering product-state fixed-point CI iteration
Cycle 0: max grad = 3.812076e+03 ; sigma = 0.000000e+00
Cycle 1: max grad = 1.015273e-13 ; sigma = 1.136868e-13
Product_state fixed-point CI iteration converged after 1 cycles
Entering product-state fixed-point CI iteration
Cycle 0: max grad = 3.812076e+03 ; sigma = 0.000000e+00
Cycle 1: max grad = 1.871002e-13 ; sigma = 1.136868e-13
Product_state fixed-point CI iteration converged after 1 cycles
Entering product-state fixed-point CI iteration
Cycle 0: max grad = 3.812076e+03 ; sigma = 0.000000e+00
Cycle 1: max grad = 1.290846e-13 ; sigma = 1.136868e-13
Product_state fixed-point CI iteration converged after 1 cycles
Entering product-state fixed-point CI iteration
Cycle 0: max grad = 3.630107e+03 ; sigma = 0.000000e+00
Cycle 1: max grad = 8.526513e-14 ; sigma = 1.136868e-13
Product_state fixed-point CI iteration converged after 1 cycles
Entering product-state fixed-point CI iteration
Cycle 0: max grad = 3.542365e+03 ; sigma = 0.000000e+00
Cycle 1: max grad = 1.290079e-13 ; sigma = 0.000000e+00
Product_state fixed-point CI iteration converged after 1 cycles
Entering product-state fixed-point CI iteration
Cycle 0: max grad = 3.811427e+03 ; sigma = 0.000000e+00
Cycle 1: max grad = 1.039169e-13 ; sigma = 3.410605e-13
Product_state fixed-point CI iteration converged after 1 cycles
Entering product-state fixed-point CI iteration
Cycle 0: max grad = 4.407235e+03 ; sigma = 0.000000e+00
Cycle 1: max grad = 1.048051e-13 ; sigma = 1.136868e-13
Product_state fixed-point CI iteration converged after 1 cycles
Entering product-state fixed-point CI iteration
Cycle 0: max grad = 4.596232e+03 ; sigma = 0.000000e+00
Cycle 1: max grad = 1.353362e-13 ; sigma = 1.136868e-13
Product_state fixed-point CI iteration converged after 1 cycles
Entering product-state fixed-point CI iteration
Cycle 0: max grad = 3.580402e+03 ; sigma = 0.000000e+00
Cycle 1: max grad = 1.159073e-13 ; sigma = 1.136868e-13
Product_state fixed-point CI iteration converged after 1 cycles
Entering product-state fixed-point CI iteration
Cycle 0: max grad = 3.442270e+03 ; sigma = 0.000000e+00
Cycle 1: max grad = 8.526513e-14 ; sigma = 1.136868e-13
Product_state fixed-point CI iteration converged after 1 cycles
[...]
LASSCF state 120 energy = -4991.14463189574
LASSCF state 121 energy = -4991.37083906584
LASSCF state 122 energy = -4991.6668735484
LASSCF state 123 energy = -4739.53815502141
LASSCF state 124 energy = -4991.64959536856
LASSCF state 125 energy = -4739.51977638632
LASSCF state 126 energy = -4991.34988138798
LASSCF state 127 energy = -4991.13814089214
LASSCF state 128 energy = -4991.14444260395
LASSCF state 129 energy = -4991.37061648836
LASSCF state 130 energy = -4991.66666516769
LASSCF state 131 energy = -4739.53793895496
LASSCF state 132 energy = -4991.64925599628
LASSCF state 133 energy = -4739.51943033494
LASSCF state 134 energy = -4991.34965959197
LASSCF state 135 energy = -4991.13783320959
LASSCF state 136 energy = -4991.66618109952
LASSCF state 137 energy = -4739.53744675011
LASSCF state 138 energy = -4991.14423806831
LASSCF state 139 energy = -4991.37064013605
LASSCF state 140 energy = -4991.64917359846
LASSCF state 141 energy = -4739.51937297416
LASSCF state 142 energy = -4991.34979796471
LASSCF state 143 energy = -4991.13813758738
LASSCF state 144 energy = -4991.14449424496
LASSCF state 145 energy = -4991.37082931642
LASSCF state 146 energy = -4991.66662710443
LASSCF state 147 energy = -4739.53792805051
LASSCF state 148 energy = -4991.64952887264
LASSCF state 149 energy = -4739.51970820841
LASSCF state 150 energy = -4991.34990698997
LASSCF state 151 energy = -4991.13820204542
LASSCF state 152 energy = -4991.144585655
LASSCF state 153 energy = -4991.3708700876
LASSCF state 154 energy = -4991.66682935127
LASSCF state 155 energy = -4739.53810801389
LASSCF state 156 energy = -4991.64960946838
LASSCF state 157 energy = -4739.51976876501
LASSCF state 158 energy = -4991.34986809999
LASSCF state 159 energy = -4991.13810184502
LASSCF state 160 energy = -4991.14451220451
LASSCF state 161 energy = -4991.37076241213
LASSCF state 162 energy = -4991.66675597429
LASSCF state 163 energy = -4739.53801226326
LASSCF state 164 energy = -4991.6494153857
LASSCF state 165 energy = -4739.51955464395
LASSCF state 166 energy = -4991.34968135445
LASSCF state 167 energy = -4991.13783708952
LASSCF state 168 energy = -4991.66640709988
LASSCF state 169 energy = -4739.53764053178
LASSCF state 170 energy = -4991.37057741073
LASSCF state 171 energy = -4739.51942910519
LASSCF state 172 energy = -4991.34976202743
LASSCF state 173 energy = -4991.37073320102
LASSCF state 174 energy = -4739.53795547927
LASSCF state 175 energy = -4739.51962159212
LASSCF state 176 energy = -4991.34975816046
LASSCF state 177 energy = -4991.37074051458
LASSCF state 178 energy = -4739.53797863797
LASSCF state 179 energy = -4739.51953940143
LASSCF state 180 energy = -4991.34960639186
LASSCF state 181 energy = -4739.53772674696
LASSI op_o0 memory check: 10170.49392 MB needed of 246656.987136 MB available (256000 MB max)
Symmetry analysis of 182 LAS rootspaces:
 ix            Energy  <S**2>  Neleca  Nelecb  Nelec   Wfnsym
  0  -4992.2319377905  11.000       8       8      16       A
  1  -4992.2322749873  13.000       8       8      16       A
  2  -4992.2325504035  17.000       8       8      16       A
  3  -4992.2325558774  17.000       8       8      16       A
  4  -4992.2322914089  13.000       8       8      16       A
  5  -4992.2321873825  14.000       8       8      16       A
  6  -4992.2325950330  20.000       8       8      16       A
  7  -4992.2327327411  22.000       8       8      16       A
  8  -4992.2326005068  20.000       8       8      16       A
  9  -4992.2321983303  14.000       8       8      16       A
 10  -4992.2324776752  19.000       8       8      16       A
 11  -4992.2327476176  23.000       8       8      16       A
 12  -4992.2327476176  23.000       8       8      16       A
 13  -4992.2324776752  19.000       8       8      16       A
 14  -4992.2319377905  11.000       8       8      16       A
 15  -4992.2321983303  14.000       8       8      16       A
 16  -4992.2326005068  20.000       8       8      16       A
 17  -4992.2327327411  22.000       8       8      16       A
 18  -4992.2325950330  20.000       8       8      16       A
 19  -4992.2321873825  14.000       8       8      16       A
 20  -4992.2322914089  13.000       8       8      16       A
 21  -4992.2325558774  17.000       8       8      16       A
 22  -4992.2325504035  17.000       8       8      16       A
 23  -4992.2322749873  13.000       8       8      16       A
 24  -4991.6661810995   8.000       8       8      16       A
 25  -4739.5374467501  13.000       8       8      16       A
 26  -4991.1442109748   8.000       8       8      16       A
 27  -4991.3706164884  10.000       8       8      16       A
 28  -4991.6489654143   8.000       8       8      16       A
 29  -4739.5191664744  13.000       8       8      16       A
 30  -4991.1378332096   8.000       8       8      16       A
 31  -4991.3496595920  10.000       8       8      16       A
 32  -4739.5377267470  11.000       8       8      16       A
 33  -4991.1378370895   9.000       8       8      16       A
 34  -4991.1445122045  12.000       8       8      16       A
 35  -4991.3707405146  10.000       8       8      16       A
 36  -4991.6664070999   9.000       8       8      16       A
 37  -4739.5376405318  14.000       8       8      16       A
 38  -4991.6494153857  12.000       8       8      16       A
 39  -4739.5195546439  17.000       8       8      16       A
 40  -4991.3496063919  10.000       8       8      16       A
 41  -4739.5379786380  14.000       8       8      16       A
 42  -4739.5195394014  13.000       8       8      16       A
 43  -4991.1381018450  14.000       8       8      16       A
 44  -4991.1445856550  15.000       8       8      16       A
 45  -4991.3707332010  12.000       8       8      16       A
 46  -4991.6667559743  14.000       8       8      16       A
 47  -4739.5380122633  19.000       8       8      16       A
 48  -4991.6496094684  15.000       8       8      16       A
 49  -4739.5197687650  20.000       8       8      16       A
 50  -4991.3497581605  12.000       8       8      16       A
 51  -4739.5379554793  13.000       8       8      16       A
 52  -4739.5196215921  14.000       8       8      16       A
 53  -4991.1382020454  15.000       8       8      16       A
 54  -4991.1444942450  14.000       8       8      16       A
 55  -4991.3705774107  10.000       8       8      16       A
 56  -4991.6668293513  15.000       8       8      16       A
 57  -4739.5381080139  20.000       8       8      16       A
 58  -4991.6495288726  14.000       8       8      16       A
 59  -4739.5197082084  19.000       8       8      16       A
 60  -4991.3497620274  10.000       8       8      16       A
 61  -4739.5194291052  11.000       8       8      16       A
 62  -4991.1381375874  12.000       8       8      16       A
 63  -4991.1442380683   9.000       8       8      16       A
 64  -4991.6666271044  12.000       8       8      16       A
 65  -4739.5379280505  17.000       8       8      16       A
 66  -4991.6491735985   9.000       8       8      16       A
 67  -4739.5193729742  14.000       8       8      16       A
 68  -4991.1444426039  12.000       8       8      16       A
 69  -4991.3707624121  12.000       8       8      16       A
 70  -4991.6492559963  12.000       8       8      16       A
 71  -4739.5194303349  17.000       8       8      16       A
 72  -4991.3496813544  12.000       8       8      16       A
 73  -4991.1381408921  15.000       8       8      16       A
 74  -4991.1446318957  17.000       8       8      16       A
 75  -4991.3708700876  16.000       8       8      16       A
 76  -4991.6666651677  15.000       8       8      16       A
 77  -4739.5379389550  20.000       8       8      16       A
 78  -4991.6495953686  17.000       8       8      16       A
 79  -4739.5197763863  22.000       8       8      16       A
 80  -4991.3498681000  16.000       8       8      16       A
 81  -4991.1382840372  18.000       8       8      16       A
 82  -4991.1446563749  18.000       8       8      16       A
 83  -4991.3708293164  16.000       8       8      16       A
 84  -4991.6668735484  18.000       8       8      16       A
 85  -4739.5381550214  23.000       8       8      16       A
 86  -4991.6496600623  18.000       8       8      16       A
 87  -4739.5198477600  23.000       8       8      16       A
 88  -4991.3499069900  16.000       8       8      16       A
 89  -4991.1382625512  17.000       8       8      16       A
 90  -4991.1445160271  15.000       8       8      16       A
 91  -4991.3706401360  12.000       8       8      16       A
 92  -4991.6668059212  17.000       8       8      16       A
 93  -4739.5380947843  22.000       8       8      16       A
 94  -4991.6494500776  15.000       8       8      16       A
 95  -4739.5196444560  20.000       8       8      16       A
 96  -4991.3497979647  12.000       8       8      16       A
 97  -4991.1380764294  12.000       8       8      16       A
 98  -4991.1442109748   8.000       8       8      16       A
 99  -4991.6664623737  12.000       8       8      16       A
 100  -4739.5377584586  17.000       8       8      16       A
 101  -4991.6489654143   8.000       8       8      16       A
 102  -4739.5191664744  13.000       8       8      16       A
 103  -4991.1380764294  12.000       8       8      16       A
 104  -4991.1445160271  15.000       8       8      16       A
 105  -4991.3708390658  16.000       8       8      16       A
 106  -4991.6664623737  12.000       8       8      16       A
 107  -4739.5377584586  17.000       8       8      16       A
 108  -4991.6494500776  15.000       8       8      16       A
 109  -4739.5196444560  20.000       8       8      16       A
 110  -4991.3498813880  16.000       8       8      16       A
 111  -4991.1382625512  17.000       8       8      16       A
 112  -4991.1446563749  18.000       8       8      16       A
 113  -4991.3709132851  18.000       8       8      16       A
 114  -4991.6668059212  17.000       8       8      16       A
 115  -4739.5380947843  22.000       8       8      16       A
 116  -4991.6496600623  18.000       8       8      16       A
 117  -4739.5198477600  23.000       8       8      16       A
 118  -4991.3499553360  18.000       8       8      16       A
 119  -4991.1382840372  18.000       8       8      16       A
 120  -4991.1446318957  17.000       8       8      16       A
 121  -4991.3708390658  16.000       8       8      16       A
 122  -4991.6668735484  18.000       8       8      16       A
 123  -4739.5381550214  23.000       8       8      16       A
 124  -4991.6495953686  17.000       8       8      16       A
 125  -4739.5197763863  22.000       8       8      16       A
 126  -4991.3498813880  16.000       8       8      16       A
 127  -4991.1381408921  15.000       8       8      16       A
 128  -4991.1444426039  12.000       8       8      16       A
 129  -4991.3706164884  10.000       8       8      16       A
 130  -4991.6666651677  15.000       8       8      16       A
 131  -4739.5379389550  20.000       8       8      16       A
 132  -4991.6492559963  12.000       8       8      16       A
 133  -4739.5194303349  17.000       8       8      16       A
 134  -4991.3496595920  10.000       8       8      16       A
 135  -4991.1378332096   8.000       8       8      16       A
 136  -4991.6661810995   8.000       8       8      16       A
 137  -4739.5374467501  13.000       8       8      16       A
 138  -4991.1442380683   9.000       8       8      16       A
 139  -4991.3706401360  12.000       8       8      16       A
 140  -4991.6491735985   9.000       8       8      16       A
 141  -4739.5193729742  14.000       8       8      16       A
 142  -4991.3497979647  12.000       8       8      16       A
 143  -4991.1381375874  12.000       8       8      16       A
 144  -4991.1444942450  14.000       8       8      16       A
 145  -4991.3708293164  16.000       8       8      16       A
 146  -4991.6666271044  12.000       8       8      16       A
 147  -4739.5379280505  17.000       8       8      16       A
 148  -4991.6495288726  14.000       8       8      16       A
 149  -4739.5197082084  19.000       8       8      16       A
 150  -4991.3499069900  16.000       8       8      16       A
 151  -4991.1382020454  15.000       8       8      16       A
 152  -4991.1445856550  15.000       8       8      16       A
 153  -4991.3708700876  16.000       8       8      16       A
 154  -4991.6668293513  15.000       8       8      16       A
 155  -4739.5381080139  20.000       8       8      16       A
 156  -4991.6496094684  15.000       8       8      16       A
 157  -4739.5197687650  20.000       8       8      16       A
 158  -4991.3498681000  16.000       8       8      16       A
 159  -4991.1381018450  14.000       8       8      16       A
 160  -4991.1445122045  12.000       8       8      16       A
 161  -4991.3707624121  12.000       8       8      16       A
 162  -4991.6667559743  14.000       8       8      16       A
 163  -4739.5380122633  19.000       8       8      16       A
 164  -4991.6494153857  12.000       8       8      16       A
 165  -4739.5195546439  17.000       8       8      16       A
 166  -4991.3496813544  12.000       8       8      16       A
 167  -4991.1378370895   9.000       8       8      16       A
 168  -4991.6664070999   9.000       8       8      16       A
 169  -4739.5376405318  14.000       8       8      16       A
 170  -4991.3705774107  10.000       8       8      16       A
 171  -4739.5194291052  11.000       8       8      16       A
 172  -4991.3497620274  10.000       8       8      16       A
 173  -4991.3707332010  12.000       8       8      16       A
 174  -4739.5379554793  13.000       8       8      16       A
 175  -4739.5196215921  14.000       8       8      16       A
 176  -4991.3497581605  12.000       8       8      16       A
 177  -4991.3707405146  10.000       8       8      16       A
 178  -4739.5379786380  14.000       8       8      16       A
 179  -4739.5195394014  13.000       8       8      16       A
 180  -4991.3496063919  10.000       8       8      16       A
 181  -4739.5377267470  11.000       8       8      16       A
Build + diag H matrix LASSI symmetry block 0
['neleca', 'nelecb', 'irrep'] = (8, 8, 0)
(182 rootspaces; 6910 states)
LASSI eigenvalues (6910 total):
 ix            Energy  <S**2>  Neleca  Nelecb  Wfnsym
  0  -4992.2363604323   2.000       8       8       A
  1  -4992.2363443401   6.000       8       8       A
  2  -4992.2363109734  -0.000       8       8       A
  3  -4992.2362588349   2.000       8       8       A
  4  -4992.2362393192   6.000       8       8       A
  5  -4992.2361564252   6.000       8       8       A
  6  -4992.2361401172  12.000       8       8       A
  7  -4992.2361302325   2.000       8       8       A
  8  -4992.2360334971   6.000       8       8       A
  9  -4992.2360216627  12.000       8       8       A
 10  -4992.2358910231  12.000       8       8       A
 11  -4992.2358630351   6.000       8       8       A
 12  -4992.2358541073  20.000       8       8       A
 13  -4992.2357197922  12.000       8       8       A
 14  -4992.2357057446  20.000       8       8       A
 15  -4992.2355297540  20.000       8       8       A
 16  -4992.2355044869  12.000       8       8       A
 17  -4992.2354794668  30.000       8       8       A
 18  -4992.2353127854  20.000       8       8       A
 19  -4992.2352936429  30.000       8       8       A
 20  -4992.2350730057  30.000       8       8       A
 21  -4992.2350120242  42.000       8       8       A
 22  -4992.2347850075  42.000       8       8       A
 23  -4992.2344485509  56.000       8       8       A
 24  -4991.6774903459  42.000       8       8       A
 25  -4991.6765319172  30.000       8       8       A
 26  -4991.6757288750  20.000       8       8       A
 27  -4991.6750837578  12.000       8       8       A
 28  -4991.6739067533  30.000       8       8       A
 29  -4991.6738464874  42.000       8       8       A
 30  -4991.6730911504  20.000       8       8       A
 31  -4991.6730022669  30.000       8       8       A
 32  -4991.6727519128  42.000       8       8       A
 33  -4991.6724276347  12.000       8       8       A
 34  -4991.6722799289  20.000       8       8       A
 35  -4991.6719234295   6.000       8       8       A
 36  -4991.6718149440  30.000       8       8       A
 37  -4991.6716901564  12.000       8       8       A
 38  -4991.6710778715  30.000       8       8       A
 39  -4991.6710011737  20.000       8       8       A
 40  -4991.6708903352  20.000       8       8       A
 41  -4991.6706426756  30.000       8       8       A
 42  -4991.6703558900  20.000       8       8       A
 43  -4991.6703275970  12.000       8       8       A
 44  -4991.6702512502  12.000       8       8       A
 45  -4991.6698875249  20.000       8       8       A
 46  -4991.6697526104  12.000       8       8       A
 47  -4991.6697302157   6.000       8       8       A
 48  -4991.6693596393   2.000       8       8       A
 49  -4991.6692900804   6.000       8       8       A
 50  -4991.6692219357  12.000       8       8       A
 51  -4991.6688188014  20.000       8       8       A
 52  -4991.6686934377  12.000       8       8       A
 53  -4991.6686786316   6.000       8       8       A
 54  -4991.6684063262  20.000       8       8       A
 55  -4991.6682808151  12.000       8       8       A
 56  -4991.6682651183   6.000       8       8       A
 57  -4991.6677954745   2.000       8       8       A
 58  -4991.6677804953  12.000       8       8       A
 59  -4991.6677603705   6.000       8       8       A
 60  -4991.6675491543   0.000       8       8       A
 61  -4991.6673276449  12.000       8       8       A
 62  -4991.6673172309   6.000       8       8       A
 63  -4991.6673103098   2.000       8       8       A
 64  -4991.6672539538   6.000       8       8       A
 65  -4991.6670851856   6.000       8       8       A
 66  -4991.6669109051   2.000       8       8       A
 67  -4991.6665738367   2.000       8       8       A
 68  -4991.6664648843   2.000       8       8       A
 69  -4991.6662102378   6.000       8       8       A
 70  -4991.6661607520   0.000       8       8       A
 71  -4991.6658126788  12.000       8       8       A
 72  -4991.6654750715   2.000       8       8       A
 73  -4991.6652948958   6.000       8       8       A
 74  -4991.6647818276   2.000       8       8       A
 75  -4991.6645146629   0.000       8       8       A
 76  -4991.6636967675   6.000       8       8       A
 77  -4991.6636340320  42.000       8       8       A
 78  -4991.6627763916  30.000       8       8       A
 79  -4991.6627056054   2.000       8       8       A
 80  -4991.6622725556  30.000       8       8       A
 81  -4991.6619954303  20.000       8       8       A
 82  -4991.6616209480  20.000       8       8       A
 83  -4991.6614119709  42.000       8       8       A
 84  -4991.6612876689  12.000       8       8       A
 85  -4991.6611165159  20.000       8       8       A
 86  -4991.6610460635  12.000       8       8       A
 87  -4991.6607775527  30.000       8       8       A
 88  -4991.6606910099  12.000       8       8       A
 89  -4991.6606434362   6.000       8       8       A
 90  -4991.6603707164   6.000       8       8       A
 91  -4991.6602493589  20.000       8       8       A
 92  -4991.6601623103  12.000       8       8       A
 93  -4991.6599819707   6.000       8       8       A
 94  -4991.6599266988   2.000       8       8       A
 95  -4991.6598271528  12.000       8       8       A
 96  -4991.6595071805   2.000       8       8       A
 97  -4991.6594177138   6.000       8       8       A
 98  -4991.6592713120   0.000       8       8       A
 99  -4991.6589033841   2.000       8       8       A
Remaining 6810 eigenvalues truncated; increase verbosity to print them all
