#INFO: **** input file is /project/lgagliardi/valayagarawal/lasscf/mof_nodes/Al_Fe_Fe/production/10_11/lassi_r1_n5.py ****
import numpy as np
import sys
from pyscf import gto, scf, tools,lib, mcscf
from pyscf.mcscf import avas,project_init_guess
from pyscf import mcscf
from mrh.my_pyscf.tools import molden
from mrh.my_pyscf.mcscf import lasscf_async as asyn
mol_name='Al_Fe_Fe.xyz' # Al-Fe-Fe MOF node
basis={'C': 'cc-pvdz','H': 'cc-pvdz','O': 'cc-pvtz','Al': 'cc-pvtz','Fe': 'cc-pvtz'}
r=1;n=5
output='r'+str(r)+'_n'+str(n)+'_analyze.log'
mol=gto.M(atom=mol_name,verbose=4,spin=9,charge=0,basis=basis, output=output) #spin = 2S
mf=scf.RHF(mol)
mf=mf.density_fit()
mf.max_cycle=1
mf.kernel()
mf.mo_coeff=np.load('hf.npy')

mo_guess=np.load('las_10_11.npy')
las=asyn.LASSCF(mf,(5,5),((1,5),(5,0)),spin_sub=(5,6),verbose=4) # spin is 2S+1
las.set_fragments_(([17],[19]),mo_guess)
las.mo_coeff=mo_guess
from mrh.my_pyscf.lassi import states
las=states.spin_shuffle(las)
for _ in range(r):
	las=states.all_single_excitations(las)
ncsf=las.get_ugg().ncsf_sub
lroots=np.minimum(n,ncsf)
las.lasci()
las.lasci(lroots=lroots)
e_roots, si= las.lassi(opt=1)
from mrh.my_pyscf.lassi.sitools import analyze
ci1, si1, space_weights, navg, maxw, entr = analyze(las,si, state=[0,1,2,3,4],return_metrics=True)
np.save('space_weights',space_weights)
np.save('navg',navg)
np.save('maxw',maxw)
np.save('entr',entr)
#INFO: ******************** input file end ********************


System: uname_result(system='Linux', node='midway3-0552.rcc.local', release='4.18.0-305.3.1.el8.x86_64', version='#1 SMP Tue Jun 1 16:14:33 UTC 2021', machine='x86_64')  Threads 16
Python 3.9.12 (main, Apr  5 2022, 06:56:58) 
[GCC 7.5.0]
numpy 1.25.0  scipy 1.7.3
Date: Thu Feb 22 12:20:11 2024
PySCF version 2.5.0
PySCF path  /project/lgagliardi/shared/Apps/pyscf
GIT ORIG_HEAD 0bc590ffddec98eec5d2513a3d85274b7a791bc6
GIT HEAD (branch master) 6f8ce439fbe0c26ec4d226e2225b28c7f668f922

[ENV] PYSCF_MAX_MEMORY 128000
[CONFIG] conf_file /home/valayagarawal/.pyscf_conf.py
[INPUT] verbose = 4
[INPUT] num. atoms = 28
[INPUT] num. electrons = 211
[INPUT] charge = 0
[INPUT] spin (= nelec alpha-beta = 2S) = 9
[INPUT] symmetry False subgroup None
[INPUT] Mole.unit = angstrom
[INPUT] Symbol           X                Y                Z      unit          X                Y                Z       unit  Magmom
[INPUT]  1 O     -2.220198244100   0.399190300300   1.694471698900 AA   -4.195566623589   0.754360339150   3.202087436747 Bohr   0.0
[INPUT]  2 O     -1.685553244600  -1.782306321700   1.431399507200 AA   -3.185234000666  -3.368070818094   2.704953043445 Bohr   0.0
[INPUT]  3 C     -2.268517865100  -0.831955037900   1.983951274000 AA   -4.286877473722  -1.572167169583   3.749124552342 Bohr   0.0
[INPUT]  4 H     -2.913342016700  -1.076728588500   2.843786805300 AA   -5.505418518751  -2.034722142755   5.373978218669 Bohr   0.0
[INPUT]  5 O      1.388288080900   2.079556156200  -1.347085675300 AA    2.623484254899   3.929791595871  -2.545622992642 Bohr   0.0
[INPUT]  6 O     -0.759908859500   2.580923634700  -0.849227704000 AA   -1.436019624086   4.877238818000  -1.604807777953 Bohr   0.0
[INPUT]  7 C      0.346567468600   2.753895325000  -1.438835699000 AA    0.654917599338   5.204107939970  -2.719005409357 Bohr   0.0
[INPUT]  8 H      0.372379614500   3.617699659800  -2.123091150300 AA    0.703695485776   6.836461557954  -4.012060811555 Bohr   0.0
[INPUT]  9 O      1.046960908100  -2.642534200000   0.961324672200 AA    1.978469379435  -4.993665912797   1.816640347245 Bohr   0.0
[INPUT] 10 O     -0.399190300300   2.220198244100   1.694471698900 AA   -0.754360339150   4.195566623589   3.202087436747 Bohr   0.0
[INPUT] 11 O      1.782306321700   1.685553244600   1.431399507200 AA    3.368070818094   3.185234000666   2.704953043445 Bohr   0.0
[INPUT] 12 C      0.831955037900   2.268517865100   1.983951274000 AA    1.572167169583   4.286877473722   3.749124552342 Bohr   0.0
[INPUT] 13 H      1.076728588500   2.913342016700   2.843786805300 AA    2.034722142755   5.505418518751   5.373978218669 Bohr   0.0
[INPUT] 14 O     -2.079556156200  -1.388288080900  -1.347085675300 AA   -3.929791595871  -2.623484254899  -2.545622992642 Bohr   0.0
[INPUT] 15 O     -2.580923634700   0.759908859500  -0.849227704000 AA   -4.877238818000   1.436019624086  -1.604807777953 Bohr   0.0
[INPUT] 16 C     -2.753895325000  -0.346567468600  -1.438835699000 AA   -5.204107939970  -0.654917599338  -2.719005409357 Bohr   0.0
[INPUT] 17 H     -3.617699659800  -0.372379614500  -2.123091150300 AA   -6.836461557954  -0.703695485776  -4.012060811555 Bohr   0.0
[INPUT] 18 Fe    -0.379874189300  -1.792603362900  -0.200337730300 AA   -0.717858179568  -3.387529405855  -0.378583442684 Bohr   0.0
[INPUT] 19 O      0.642223180300  -2.237796553000  -1.892914517600 AA    1.213625921614  -4.228822607666  -3.577090015477 Bohr   0.0
[INPUT] 20 Fe     1.792603362900   0.379874189300  -0.200337730300 AA    3.387529405855   0.717858179568  -0.378583442684 Bohr   0.0
[INPUT] 21 O      2.237796553000  -0.642223180300  -1.892914517600 AA    4.228822607666  -1.213625921614  -3.577090015477 Bohr   0.0
[INPUT] 22 O      2.642534200000  -1.046960908100   0.961324672200 AA    4.993665912797  -1.978469379435   1.816640347245 Bohr   0.0
[INPUT] 23 Al    -1.236271642100   1.236271642100   0.350650148000 AA   -2.336214819135   2.336214819135   0.662632745258 Bohr   0.0
[INPUT] 24 O     -0.044950195400   0.044950195400   0.012762141300 AA   -0.084943558552   0.084943558552   0.024116951820 Bohr   0.0
[INPUT] 25 C      1.645528685000  -1.645528685000  -2.357112465400 AA    3.109598544766  -3.109598544766  -4.454297004404 Bohr   0.0
[INPUT] 26 H      2.056906298400  -2.056906298400  -3.294571291600 AA    3.886989567869  -3.886989567869  -6.225837438979 Bohr   0.0
[INPUT] 27 C      2.160924281100  -2.160924281100   1.277584186800 AA    4.083555067202  -4.083555067202   2.414284214127 Bohr   0.0
[INPUT] 28 H      2.796080543300  -2.796080543300   1.918244302400 AA    5.283826449062  -5.283826449062   3.624956371543 Bohr   0.0

nuclear repulsion = 3455.30471244119
number of shells = 192
number of NR pGTOs = 1065
number of NR cGTOs = 674
basis = {'C': 'cc-pvdz', 'H': 'cc-pvdz', 'O': 'cc-pvtz', 'Al': 'cc-pvtz', 'Fe': 'cc-pvtz'}
ecp = {}
CPU time:         2.52


******** <class 'pyscf.df.df_jk.DFROHF'> ********
method = DFROHF
initial guess = minao
damping factor = 0
level_shift factor = 0
DIIS = <class 'pyscf.scf.diis.CDIIS'>
diis_start_cycle = 1
diis_space = 8
diis_damp = 0
SCF conv_tol = 1e-09
SCF conv_tol_grad = None
SCF max_cycles = 1
direct_scf = False
chkfile to save SCF result = /scratch/local/jobs/17719283/tmpxmht1co4
max_memory 128000 MB (current use 77 MB)
num. doubly occ = 101  num. singly occ = 9
Set gradient conv threshold to 3.16228e-05
******** <class 'pyscf.df.df.DF'> ********
auxbasis = None
max_memory = 128000
Even tempered Gaussians are generated as DF auxbasis for  O Fe H Al C
init E= -3971.90238344316
  HOMO = 0.121056952198063  LUMO = 0.123678658553609
cycle= 1 E= -3943.04990514113  delta_E= 28.9  |g|= 9.05  |ddm|=   34
SCF not converged.
SCF energy = -3943.04990514113
Built 4 spin(local Sz)-shuffled LAS states from 1 reference LAS states
Built 13 singly-excited LAS states from 5 reference LAS states
Entering product-state fixed-point CI iteration
Cycle 0: max grad = 2.613888e-03 ; sigma = 0.000000e+00
Cycle 1: max grad = 1.136868e-13 ; sigma = 2.656736e-08
Cycle 2: max grad = 1.136868e-13 ; sigma = 1.136868e-13
Product_state fixed-point CI iteration converged after 2 cycles
Entering product-state fixed-point CI iteration
Cycle 0: max grad = 2.600930e-03 ; sigma = 0.000000e+00
Cycle 1: max grad = 1.989520e-13 ; sigma = 2.627451e-08
Cycle 2: max grad = 1.989520e-13 ; sigma = 2.273737e-13
Product_state fixed-point CI iteration converged after 2 cycles
Entering product-state fixed-point CI iteration
Cycle 0: max grad = 2.595377e-03 ; sigma = 0.000000e+00
Cycle 1: max grad = 8.122181e-14 ; sigma = 2.615377e-08
Cycle 2: max grad = 8.122181e-14 ; sigma = 3.410605e-13
Product_state fixed-point CI iteration converged after 2 cycles
Entering product-state fixed-point CI iteration
Cycle 0: max grad = 2.597228e-03 ; sigma = 0.000000e+00
Cycle 1: max grad = 1.421085e-13 ; sigma = 2.619367e-08
Cycle 2: max grad = 1.421085e-13 ; sigma = 0.000000e+00
Product_state fixed-point CI iteration converged after 2 cycles
Entering product-state fixed-point CI iteration
Cycle 0: max grad = 2.606484e-03 ; sigma = 0.000000e+00
Cycle 1: max grad = 2.780464e-15 ; sigma = 2.639831e-08
Cycle 2: max grad = 2.780464e-15 ; sigma = 0.000000e+00
Product_state fixed-point CI iteration converged after 2 cycles
Entering product-state fixed-point CI iteration
Cycle 0: max grad = 2.082574e-02 ; sigma = 0.000000e+00
Cycle 1: max grad = 1.752441e-04 ; sigma = 1.511821e-02
Cycle 2: max grad = 8.314607e-06 ; sigma = 3.871799e-06
Cycle 3: max grad = 8.554991e-08 ; sigma = 1.609351e-09
Cycle 4: max grad = 5.028174e-09 ; sigma = 4.547474e-13
Product_state fixed-point CI iteration converged after 4 cycles
Entering product-state fixed-point CI iteration
Cycle 0: max grad = 1.092801e-02 ; sigma = 0.000000e+00
Cycle 1: max grad = 8.960273e-04 ; sigma = 2.684367e-03
Cycle 2: max grad = 3.426537e-05 ; sigma = 1.441322e-05
Cycle 3: max grad = 1.019853e-06 ; sigma = 5.256777e-08
Cycle 4: max grad = 5.580140e-08 ; sigma = 9.094947e-11
Product_state fixed-point CI iteration converged after 4 cycles
Entering product-state fixed-point CI iteration
Cycle 0: max grad = 4.702213e-03 ; sigma = 0.000000e+00
Cycle 1: max grad = 1.271057e-14 ; sigma = 9.487285e-03
Cycle 2: max grad = 1.271057e-14 ; sigma = 5.684342e-14
Product_state fixed-point CI iteration converged after 2 cycles
Entering product-state fixed-point CI iteration
Cycle 0: max grad = 2.085785e-02 ; sigma = 0.000000e+00
Cycle 1: max grad = 1.524495e-04 ; sigma = 1.523050e-02
Cycle 2: max grad = 8.946918e-06 ; sigma = 1.781592e-05
Cycle 3: max grad = 4.057188e-08 ; sigma = 1.813419e-09
Cycle 4: max grad = 1.351869e-09 ; sigma = 7.958079e-13
Product_state fixed-point CI iteration converged after 4 cycles
Entering product-state fixed-point CI iteration
Cycle 0: max grad = 1.126303e-02 ; sigma = 0.000000e+00
Cycle 1: max grad = 4.072857e-04 ; sigma = 5.171691e-03
Cycle 2: max grad = 6.887223e-06 ; sigma = 7.383263e-06
Cycle 3: max grad = 9.055688e-08 ; sigma = 2.225079e-09
Cycle 4: max grad = 2.613761e-09 ; sigma = 1.591616e-12
Product_state fixed-point CI iteration converged after 4 cycles
Entering product-state fixed-point CI iteration
Cycle 0: max grad = 4.625156e-03 ; sigma = 0.000000e+00
Cycle 1: max grad = 7.190187e-14 ; sigma = 8.123216e-03
Cycle 2: max grad = 7.190187e-14 ; sigma = 5.684342e-14
Product_state fixed-point CI iteration converged after 2 cycles
Entering product-state fixed-point CI iteration
Cycle 0: max grad = 2.086427e-02 ; sigma = 0.000000e+00
Cycle 1: max grad = 1.534412e-04 ; sigma = 1.518602e-02
Cycle 2: max grad = 1.061299e-05 ; sigma = 2.708721e-05
Cycle 3: max grad = 1.402402e-08 ; sigma = 2.640490e-09
Cycle 4: max grad = 7.856907e-10 ; sigma = 3.410605e-13
Product_state fixed-point CI iteration converged after 4 cycles
Entering product-state fixed-point CI iteration
Cycle 0: max grad = 1.133004e-02 ; sigma = 0.000000e+00
Cycle 1: max grad = 3.215621e-04 ; sigma = 5.649119e-03
Cycle 2: max grad = 6.380793e-06 ; sigma = 8.362927e-06
Cycle 3: max grad = 6.784533e-08 ; sigma = 1.948592e-10
Cycle 4: max grad = 1.186507e-09 ; sigma = 2.046363e-12
Product_state fixed-point CI iteration converged after 4 cycles
Entering product-state fixed-point CI iteration
Cycle 0: max grad = 4.609744e-03 ; sigma = 0.000000e+00
Cycle 1: max grad = 4.493867e-14 ; sigma = 7.855686e-03
Cycle 2: max grad = 4.493867e-14 ; sigma = 5.684342e-14
Product_state fixed-point CI iteration converged after 2 cycles
Entering product-state fixed-point CI iteration
Cycle 0: max grad = 2.084501e-02 ; sigma = 0.000000e+00
Cycle 1: max grad = 1.546878e-04 ; sigma = 1.521806e-02
Cycle 2: max grad = 9.390878e-06 ; sigma = 7.933867e-06
Cycle 3: max grad = 6.681690e-08 ; sigma = 1.952344e-09
Cycle 4: max grad = 3.111694e-09 ; sigma = 2.273737e-13
Product_state fixed-point CI iteration converged after 4 cycles
Entering product-state fixed-point CI iteration
Cycle 0: max grad = 1.112902e-02 ; sigma = 0.000000e+00
Cycle 1: max grad = 5.869092e-04 ; sigma = 4.186383e-03
Cycle 2: max grad = 1.463911e-05 ; sigma = 2.259470e-06
Cycle 3: max grad = 3.033464e-07 ; sigma = 9.987957e-09
Cycle 4: max grad = 1.143685e-08 ; sigma = 6.366463e-12
Product_state fixed-point CI iteration converged after 4 cycles
Entering product-state fixed-point CI iteration
Cycle 0: max grad = 4.655979e-03 ; sigma = 0.000000e+00
Cycle 1: max grad = 1.271056e-14 ; sigma = 8.664761e-03
Cycle 2: max grad = 1.271056e-14 ; sigma = 5.684342e-14
Product_state fixed-point CI iteration converged after 2 cycles
Entering product-state fixed-point CI iteration
Cycle 0: max grad = 4.763859e-03 ; sigma = 0.000000e+00
Cycle 1: max grad = 1.776357e-15 ; sigma = 1.059492e-02
Cycle 2: max grad = 7.105427e-15 ; sigma = 5.684342e-14
Product_state fixed-point CI iteration converged after 2 cycles
LASSCF state-average energy = -3971.78172024685
LASSCF state 0 energy = -3971.78172024685
LASSCF state 1 energy = -3971.78544204859
LASSCF state 2 energy = -3971.78703710648
LASSCF state 3 energy = -3971.78650542051
LASSCF state 4 energy = -3971.7838469907
LASSCF state 5 energy = -3970.70223739246
LASSCF state 6 energy = -3971.21910487136
LASSCF state 7 energy = -3713.27300419917
LASSCF state 8 energy = -3970.70405629642
LASSCF state 9 energy = -3971.22057596479
LASSCF state 10 energy = -3713.2740322833
LASSCF state 11 energy = -3970.704458501
LASSCF state 12 energy = -3971.22089075077
LASSCF state 13 energy = -3713.27424318433
LASSCF state 14 energy = -3970.70330901925
LASSCF state 15 energy = -3971.21997533099
LASSCF state 16 energy = -3713.27361696757
LASSCF state 17 energy = -3713.27219810874
Entering product-state fixed-point CI iteration
Cycle 0: max grad = 4.221177e+03 ; sigma = 0.000000e+00
Cycle 1: max grad = 5.828671e-13 ; sigma = 1.136868e-13
Product_state fixed-point CI iteration converged after 1 cycles
Entering product-state fixed-point CI iteration
Cycle 0: max grad = 4.220975e+03 ; sigma = 0.000000e+00
Cycle 1: max grad = 2.984279e-13 ; sigma = 2.273737e-13
Product_state fixed-point CI iteration converged after 1 cycles
Entering product-state fixed-point CI iteration
Cycle 0: max grad = 4.220791e+03 ; sigma = 0.000000e+00
Cycle 1: max grad = 4.989339e-13 ; sigma = 4.547474e-13
Product_state fixed-point CI iteration converged after 1 cycles
Entering product-state fixed-point CI iteration
Cycle 0: max grad = 4.220864e+03 ; sigma = 0.000000e+00
Cycle 1: max grad = 1.421085e-13 ; sigma = 0.000000e+00
Product_state fixed-point CI iteration converged after 1 cycles
Entering product-state fixed-point CI iteration
Cycle 0: max grad = 4.221086e+03 ; sigma = 0.000000e+00
Cycle 1: max grad = 6.288303e-13 ; sigma = 0.000000e+00
Product_state fixed-point CI iteration converged after 1 cycles
Entering product-state fixed-point CI iteration
Cycle 0: max grad = 9.417540e+03 ; sigma = 0.000000e+00
Cycle 1: max grad = 5.535630e-11 ; sigma = 9.094947e-13
Product_state fixed-point CI iteration converged after 1 cycles
Entering product-state fixed-point CI iteration
Cycle 0: max grad = 4.910110e+03 ; sigma = 0.000000e+00
Cycle 1: max grad = 1.636350e-09 ; sigma = 2.501110e-12
Product_state fixed-point CI iteration converged after 1 cycles
Entering product-state fixed-point CI iteration
Cycle 0: max grad = 1.256595e+02 ; sigma = 0.000000e+00
Cycle 1: max grad = 1.271057e-14 ; sigma = 5.684342e-14
Product_state fixed-point CI iteration converged after 1 cycles
Entering product-state fixed-point CI iteration
Cycle 0: max grad = 7.905399e+03 ; sigma = 0.000000e+00
Cycle 1: max grad = 7.666297e-12 ; sigma = 9.094947e-13
Product_state fixed-point CI iteration converged after 1 cycles
Entering product-state fixed-point CI iteration
Cycle 0: max grad = 5.035429e+03 ; sigma = 0.000000e+00
Cycle 1: max grad = 3.917843e-11 ; sigma = 1.705303e-12
Product_state fixed-point CI iteration converged after 1 cycles
Entering product-state fixed-point CI iteration
Cycle 0: max grad = 1.223856e+02 ; sigma = 0.000000e+00
Cycle 1: max grad = 7.190187e-14 ; sigma = 5.684342e-14
Product_state fixed-point CI iteration converged after 1 cycles
Entering product-state fixed-point CI iteration
Cycle 0: max grad = 6.898152e+03 ; sigma = 0.000000e+00
Cycle 1: max grad = 2.474327e-12 ; sigma = 1.023182e-12
Product_state fixed-point CI iteration converged after 1 cycles
Entering product-state fixed-point CI iteration
Cycle 0: max grad = 5.058968e+03 ; sigma = 0.000000e+00
Cycle 1: max grad = 2.764618e-11 ; sigma = 2.501110e-12
Product_state fixed-point CI iteration converged after 1 cycles
Entering product-state fixed-point CI iteration
Cycle 0: max grad = 1.208087e+02 ; sigma = 0.000000e+00
Cycle 1: max grad = 4.493867e-14 ; sigma = 1.136868e-13
Product_state fixed-point CI iteration converged after 1 cycles
Entering product-state fixed-point CI iteration
Cycle 0: max grad = 8.852592e+03 ; sigma = 0.000000e+00
Cycle 1: max grad = 2.475515e-11 ; sigma = 7.958079e-13
Product_state fixed-point CI iteration converged after 1 cycles
Entering product-state fixed-point CI iteration
Cycle 0: max grad = 4.986546e+03 ; sigma = 0.000000e+00
Cycle 1: max grad = 2.424398e-10 ; sigma = 2.160050e-12
Product_state fixed-point CI iteration converged after 1 cycles
Entering product-state fixed-point CI iteration
Cycle 0: max grad = 1.243551e+02 ; sigma = 0.000000e+00
Cycle 1: max grad = 1.271056e-14 ; sigma = 5.684342e-14
Product_state fixed-point CI iteration converged after 1 cycles
Entering product-state fixed-point CI iteration
Cycle 0: max grad = 1.259835e+02 ; sigma = 0.000000e+00
Cycle 1: max grad = 7.771561e-15 ; sigma = 0.000000e+00
Product_state fixed-point CI iteration converged after 1 cycles
LASSCF state-average energy = -3971.78172024685
LASSCF state 0 energy = -3971.78172024685
LASSCF state 1 energy = -3971.78544204859
LASSCF state 2 energy = -3971.78703710648
LASSCF state 3 energy = -3971.78650542051
LASSCF state 4 energy = -3971.7838469907
LASSCF state 5 energy = -3970.70223739246
LASSCF state 6 energy = -3971.21910487136
LASSCF state 7 energy = -3713.27300419917
LASSCF state 8 energy = -3970.70405629642
LASSCF state 9 energy = -3971.22057596479
LASSCF state 10 energy = -3713.2740322833
LASSCF state 11 energy = -3970.704458501
LASSCF state 12 energy = -3971.22089075077
LASSCF state 13 energy = -3713.27424318433
LASSCF state 14 energy = -3970.70330901925
LASSCF state 15 energy = -3971.21997533099
LASSCF state 16 energy = -3713.27361696756
LASSCF state 17 energy = -3713.27219810874
LASSI op_o0 memory check: 8.450544 MB needed of 120128.96256 MB available (128000 MB max)
Symmetry analysis of 18 LAS rootspaces:
 ix            Energy  <S**2>  Neleca  Nelecb  Nelec   Wfnsym
  0  -3971.7817202469   4.750       6       5      11       A
  1  -3971.7854420486  11.750       6       5      11       A
  2  -3971.7870371065  14.750       6       5      11       A
  3  -3971.7865054205  13.750       6       5      11       A
  4  -3971.7838469907   8.750       6       5      11       A
  5  -3970.7022373925   3.750       6       5      11       A
  6  -3971.2191048714   3.750       6       5      11       A
  7  -3713.2730041992   8.750       6       5      11       A
  8  -3970.7040562964   8.750       6       5      11       A
  9  -3971.2205759648   8.750       6       5      11       A
 10  -3713.2740322833  13.750       6       5      11       A
 11  -3970.7044585010   9.750       6       5      11       A
 12  -3971.2208907508   9.750       6       5      11       A
 13  -3713.2742431843  14.750       6       5      11       A
 14  -3970.7033090193   6.750       6       5      11       A
 15  -3971.2199753310   6.750       6       5      11       A
 16  -3713.2736169676  11.750       6       5      11       A
 17  -3713.2721981087   4.750       6       5      11       A
Build + diag H matrix LASSI symmetry block 0
['neleca', 'nelecb', 'irrep'] = (6, 5, 0)
(18 rootspaces; 250 states)
LASSI eigenvalues (250 total):
 ix            Energy  <S**2>  Neleca  Nelecb  Wfnsym
  0  -3971.7926705659   0.750       6       5       A
  1  -3971.7926469726   3.750       6       5       A
  2  -3971.7925977044   8.750       6       5       A
  3  -3971.7925074520  15.750       6       5       A
  4  -3971.7923539661  24.750       6       5       A
  5  -3971.2239078370  15.750       6       5       A
  6  -3971.2224516616  15.750       6       5       A
  7  -3971.2204856069   8.750       6       5       A
  8  -3971.2190266052   3.750       6       5       A
  9  -3971.2184851903   8.750       6       5       A
 10  -3971.2181712913   0.750       6       5       A
 11  -3971.2172063793  15.750       6       5       A
 12  -3971.2147858244   3.750       6       5       A
 13  -3971.2141360541  15.750       6       5       A
 14  -3971.2126046091   0.750       6       5       A
 15  -3971.2122223858  15.750       6       5       A
 16  -3971.2116682987   8.750       6       5       A
 17  -3971.2103758875  15.750       6       5       A
 18  -3971.2094174636   8.750       6       5       A
 19  -3971.2086565696   8.750       6       5       A
 20  -3971.2081084505   3.750       6       5       A
 21  -3971.2080518476   8.750       6       5       A
 22  -3971.2077414465   3.750       6       5       A
 23  -3971.2074138452   0.750       6       5       A
 24  -3971.2058157252   3.750       6       5       A
 25  -3971.2054176510   0.750       6       5       A
 26  -3971.2048089209  15.750       6       5       A
 27  -3971.2047101593   3.750       6       5       A
 28  -3971.2043359459   0.750       6       5       A
 29  -3971.2024253822  15.750       6       5       A
 30  -3971.2024017752   0.750       6       5       A
 31  -3971.2009490854   8.750       6       5       A
 32  -3971.1986510793   8.750       6       5       A
 33  -3971.1982244906   3.750       6       5       A
 34  -3971.1965969022   0.750       6       5       A
 35  -3971.1959507282   3.750       6       5       A
 36  -3971.1943260673   0.750       6       5       A
 37  -3971.1847398938  15.750       6       5       A
 38  -3971.1799915978   8.750       6       5       A
 39  -3971.1766566388   3.750       6       5       A
 40  -3971.1747106101   0.750       6       5       A
 41  -3971.1733323111  15.750       6       5       A
 42  -3971.1731844344  15.750       6       5       A
 43  -3971.1717956829  15.750       6       5       A
 44  -3971.1712164773   8.750       6       5       A
 45  -3971.1704202770   8.750       6       5       A
 46  -3971.1701161738   3.750       6       5       A
 47  -3971.1694492919   0.750       6       5       A
 48  -3971.1689103484  15.750       6       5       A
 49  -3971.1685105273   3.750       6       5       A
 50  -3971.1682931630   8.750       6       5       A
 51  -3971.1673227224   0.750       6       5       A
 52  -3971.1673060890  15.750       6       5       A
 53  -3971.1662613153  15.750       6       5       A
 54  -3971.1656195381   8.750       6       5       A
 55  -3971.1654527500   3.750       6       5       A
 56  -3971.1642656883   3.750       6       5       A
 57  -3971.1638232883   0.750       6       5       A
 58  -3971.1635267690  15.750       6       5       A
 59  -3971.1634495693   0.750       6       5       A
 60  -3971.1633238856   8.750       6       5       A
 61  -3971.1631924080   8.750       6       5       A
 62  -3971.1617640598  15.750       6       5       A
 63  -3971.1611012061   3.750       6       5       A
 64  -3971.1604181806   8.750       6       5       A
 65  -3971.1597560000   0.750       6       5       A
 66  -3971.1594251336   3.750       6       5       A
 67  -3971.1592564339  15.750       6       5       A
 68  -3971.1579268989   3.750       6       5       A
 69  -3971.1574527967   0.750       6       5       A
 70  -3971.1563294932   8.750       6       5       A
 71  -3971.1560661731   0.750       6       5       A
 72  -3971.1539004797   8.750       6       5       A
 73  -3971.1524398964   3.750       6       5       A
 74  -3971.1501034228   0.750       6       5       A
 75  -3971.1500417732   3.750       6       5       A
 76  -3971.1477197068   0.750       6       5       A
 77  -3971.1341395814  15.750       6       5       A
 78  -3971.1318167658   8.750       6       5       A
 79  -3971.1300530011  15.750       6       5       A
 80  -3971.1300142388   3.750       6       5       A
 81  -3971.1288655048   0.750       6       5       A
 82  -3971.1254481118   8.750       6       5       A
 83  -3971.1221473475   3.750       6       5       A
 84  -3971.1201631974   0.750       6       5       A
 85  -3970.7081697197  15.750       6       5       A
 86  -3970.7063588500  15.750       6       5       A
 87  -3970.7040116388   8.750       6       5       A
 88  -3970.7026131690   8.750       6       5       A
 89  -3970.7022095938   3.750       6       5       A
 90  -3970.7011628228   0.750       6       5       A
 91  -3970.6988145010   3.750       6       5       A
 92  -3970.6965183465   0.750       6       5       A
 93  -3970.6908860423  15.750       6       5       A
 94  -3970.6885490092  15.750       6       5       A
 95  -3970.6871599260   8.750       6       5       A
 96  -3970.6860483194   8.750       6       5       A
 97  -3970.6858419382   3.750       6       5       A
 98  -3970.6851351520   0.750       6       5       A
 99  -3970.6829804803   3.750       6       5       A
Remaining 150 eigenvalues truncated; increase verbosity to print them all
Natural-orbital analysis for state(s) [0, 1, 2, 3, 4]
LASSI op_o0 memory check: 8.450544 MB needed of 120124.715008 MB available (128000 MB max)
Delocalized natural orbitals do not reflect LAS fragmentation
Natural occ [2.         1.03077725 1.01692673 1.01415392 1.00356584 1.00000035
 0.99643361 0.9858463  0.9830734  0.9692226 ]
Natural orbital (expansion on AOs) in CAS space
               #1        #2        #3        #4        #5       
0 O 1s          -0.00008  -0.00010  -0.00012   0.00035   0.00025
0 O 2s          -0.00047   0.00141   0.00062   0.00120  -0.00136
0 O 3s          -0.00015   0.00046   0.00025   0.00024  -0.00050
0 O 4s          -0.00062   0.00294   0.00105  -0.00380  -0.00415
0 O 2px         -0.00106   0.00137   0.00011   0.00524   0.00068
0 O 2py          0.00002  -0.00097  -0.00175   0.00188   0.00205
0 O 2pz         -0.00051   0.00077   0.00148  -0.00233  -0.00150
0 O 3px         -0.00130   0.00183  -0.00003   0.00623   0.00052
0 O 3py          0.00004  -0.00103  -0.00177   0.00191   0.00225
0 O 3pz         -0.00068   0.00082   0.00163  -0.00274  -0.00153
0 O 4px         -0.00148   0.00152   0.00041   0.00663   0.00174
0 O 4py          0.00002  -0.00238  -0.00389   0.00368   0.00371
0 O 4pz         -0.00069   0.00178   0.00347  -0.00216  -0.00311
0 O 3dxy        -0.00001   0.00003   0.00004   0.00002   0.00000
0 O 3dyz         0.00000   0.00003  -0.00001   0.00005  -0.00002
0 O 3dz^2        0.00000  -0.00001   0.00002  -0.00007   0.00000
0 O 3dxz         0.00000   0.00002  -0.00001   0.00001  -0.00007
0 O 3dx2-y2      0.00000   0.00001   0.00003  -0.00007  -0.00002
0 O 4dxy        -0.00001  -0.00019   0.00005  -0.00011   0.00036
0 O 4dyz         0.00002   0.00026   0.00003   0.00016  -0.00044
0 O 4dz^2        0.00004  -0.00020  -0.00013  -0.00009   0.00024
0 O 4dxz        -0.00004   0.00007   0.00005   0.00034  -0.00021
0 O 4dx2-y2      0.00003  -0.00005  -0.00006  -0.00012   0.00019
0 O 4f-3        -0.00001   0.00003   0.00004  -0.00002  -0.00007
0 O 4f-2        -0.00000  -0.00001   0.00003  -0.00006   0.00003
0 O 4f-1         0.00000   0.00004   0.00002   0.00003  -0.00007
0 O 4f+0         0.00000   0.00002  -0.00002   0.00005  -0.00003
0 O 4f+1         0.00001  -0.00000  -0.00001  -0.00003   0.00001
0 O 4f+2         0.00000   0.00002  -0.00002   0.00009  -0.00004
0 O 4f+3         0.00000  -0.00002   0.00002  -0.00004   0.00007
1 O 1s           0.00022   0.00009  -0.00016   0.00016   0.00009
1 O 2s          -0.00123  -0.00898  -0.00118   0.00133   0.02519
1 O 3s          -0.00034  -0.00261  -0.00022   0.00029   0.00726
1 O 4s          -0.00167  -0.01766   0.00036   0.00014   0.04246
1 O 2px          0.00134  -0.00938  -0.00680  -0.00069   0.01610
1 O 2py          0.00168  -0.00221  -0.00844   0.00825   0.00158
1 O 2pz          0.00162   0.00590   0.00448  -0.01212  -0.02029
1 O 3px          0.00169  -0.01220  -0.00884  -0.00069   0.02071
1 O 3py          0.00202  -0.00303  -0.01034   0.01035   0.00328
1 O 3pz          0.00204   0.00798   0.00591  -0.01532  -0.02622
1 O 4px          0.00195  -0.01322  -0.00761  -0.00011   0.02219
1 O 4py          0.00203  -0.00506  -0.01181   0.00884   0.00491
1 O 4pz          0.00190   0.00861   0.00467  -0.01776  -0.02905
1 O 3dxy        -0.00003  -0.00017   0.00025  -0.00042   0.00042
1 O 3dyz         0.00011   0.00002  -0.00033   0.00021  -0.00047
1 O 3dz^2        0.00006   0.00003   0.00004  -0.00059  -0.00034
1 O 3dxz        -0.00001  -0.00044  -0.00009   0.00005   0.00095
1 O 3dx2-y2     -0.00007   0.00034   0.00028   0.00001  -0.00029
1 O 4dxy         0.00002  -0.00054   0.00085  -0.00106   0.00095
1 O 4dyz         0.00031   0.00002  -0.00078   0.00048  -0.00122
1 O 4dz^2        0.00023  -0.00010   0.00007  -0.00196  -0.00068
1 O 4dxz         0.00005  -0.00095  -0.00045   0.00039   0.00202
1 O 4dx2-y2     -0.00029   0.00122   0.00112   0.00038  -0.00099
1 O 4f-3        -0.00004   0.00014   0.00024  -0.00000  -0.00018
1 O 4f-2        -0.00000  -0.00014  -0.00019   0.00016   0.00035
1 O 4f-1         0.00001   0.00005   0.00009  -0.00036  -0.00020
1 O 4f+0        -0.00005  -0.00001   0.00008   0.00009   0.00009
1 O 4f+1        -0.00000   0.00014  -0.00002  -0.00001  -0.00028
1 O 4f+2        -0.00003  -0.00014   0.00009  -0.00011   0.00027
1 O 4f+3         0.00002   0.00012  -0.00009   0.00021  -0.00014
2 C 1s           0.00004   0.00024  -0.00022   0.00037  -0.00063
2 C 2s           0.00090   0.00268  -0.00328   0.00430  -0.00855
2 C 3s           0.00076   0.00098  -0.00266   0.00691  -0.00407
2 C 2px          0.00260  -0.00157  -0.00533  -0.00268  -0.00647
2 C 2py         -0.00089  -0.00535   0.00145  -0.00278   0.01309
2 C 2pz          0.00034  -0.00440   0.00048  -0.00855   0.00586
2 C 3px          0.00142  -0.00083  -0.00119  -0.00439  -0.00386
2 C 3py          0.00009  -0.00358  -0.00348  -0.00005   0.00632
2 C 3pz          0.00049  -0.00315  -0.00236  -0.00384   0.00424
2 C 3dxy        -0.00046   0.00042   0.00057   0.00108   0.00069
2 C 3dyz        -0.00015   0.00021  -0.00020   0.00142   0.00007
2 C 3dz^2       -0.00016  -0.00091  -0.00083   0.00153   0.00256
2 C 3dxz        -0.00000   0.00090   0.00072  -0.00066  -0.00216
2 C 3dx2-y2      0.00018  -0.00187  -0.00171   0.00108   0.00357
3 H 1s          -0.00043  -0.00386  -0.00279   0.00390   0.00990
3 H 2s          -0.00027  -0.00391  -0.00283   0.00472   0.01138
3 H 2px          0.00006   0.00002  -0.00013   0.00003  -0.00026
3 H 2py         -0.00002  -0.00015   0.00012  -0.00004   0.00035
3 H 2pz          0.00002  -0.00016   0.00006  -0.00022   0.00024
4 O 1s          -0.00029   0.00005  -0.00003  -0.00009   0.00006
4 O 2s           0.00021  -0.00848   0.00003  -0.00809   0.02525
4 O 3s           0.00006  -0.00243   0.00007  -0.00219   0.00705
4 O 4s           0.00042  -0.01289   0.00042  -0.01185   0.03666
4 O 2px          0.00000  -0.00747   0.00789   0.00642   0.00298
4 O 2py         -0.00002   0.00384   0.00733   0.01649  -0.02689
4 O 2pz         -0.00001  -0.00201  -0.00411  -0.00658   0.01911
4 O 3px          0.00001  -0.00915   0.00993   0.00818   0.00295
4 O 3py         -0.00002   0.00494   0.00971   0.02147  -0.03448
4 O 3pz          0.00000  -0.00285  -0.00535  -0.00889   0.02503
4 O 4px          0.00006  -0.00706   0.00881   0.00904  -0.00175
4 O 4py         -0.00023   0.00445   0.00810   0.01968  -0.03201
4 O 4pz          0.00005  -0.00264  -0.00433  -0.00734   0.02494
4 O 3dxy        -0.00000  -0.00044   0.00022  -0.00008   0.00077
4 O 3dyz         0.00000  -0.00007  -0.00005  -0.00012   0.00042
4 O 3dz^2       -0.00000  -0.00021   0.00010  -0.00010   0.00033
4 O 3dxz         0.00000   0.00020  -0.00007  -0.00008  -0.00035
4 O 3dx2-y2      0.00000   0.00013  -0.00027  -0.00044   0.00023
4 O 4dxy         0.00000  -0.00086   0.00031  -0.00064   0.00158
4 O 4dyz         0.00002   0.00021  -0.00032  -0.00027   0.00057
4 O 4dz^2        0.00001  -0.00050   0.00008  -0.00016   0.00062
4 O 4dxz        -0.00000   0.00065  -0.00003  -0.00005  -0.00118
4 O 4dx2-y2      0.00002   0.00046  -0.00115  -0.00153   0.00088
4 O 4f-3         0.00000   0.00020  -0.00004   0.00009  -0.00037
4 O 4f-2        -0.00000  -0.00012   0.00012   0.00009  -0.00015
4 O 4f-1         0.00000  -0.00005  -0.00002  -0.00010   0.00027
4 O 4f+0        -0.00000  -0.00001  -0.00003  -0.00005   0.00000
4 O 4f+1         0.00000   0.00018  -0.00008  -0.00005  -0.00010
4 O 4f+2        -0.00000  -0.00007  -0.00007  -0.00013   0.00036
4 O 4f+3        -0.00001  -0.00010   0.00024   0.00028  -0.00023
5 O 1s          -0.00014   0.00019  -0.00012  -0.00014   0.00012
5 O 2s          -0.00020   0.00098   0.00068   0.00091  -0.00197
5 O 3s          -0.00006   0.00021   0.00022   0.00029  -0.00061
5 O 4s          -0.00051   0.00034   0.00148   0.00352  -0.00103
5 O 2px          0.00007  -0.00012   0.00174   0.00110  -0.00201
5 O 2py          0.00022   0.00072  -0.00133  -0.00032  -0.00168
5 O 2pz         -0.00026   0.00107  -0.00153  -0.00309   0.00253
5 O 3px          0.00008  -0.00014   0.00200   0.00099  -0.00223
5 O 3py          0.00028   0.00078  -0.00174  -0.00095  -0.00160
5 O 3pz         -0.00030   0.00136  -0.00177  -0.00353   0.00274
5 O 4px         -0.00004   0.00010   0.00323   0.00236  -0.00231
5 O 4py          0.00020   0.00128  -0.00143   0.00058  -0.00349
5 O 4pz         -0.00035   0.00195  -0.00251  -0.00477   0.00409
5 O 3dxy        -0.00000  -0.00002   0.00005   0.00002  -0.00001
5 O 3dyz        -0.00000   0.00005   0.00001   0.00001  -0.00007
5 O 3dz^2        0.00000  -0.00003   0.00001  -0.00002  -0.00001
5 O 3dxz        -0.00001   0.00001  -0.00001   0.00006  -0.00001
5 O 3dx2-y2      0.00001   0.00004  -0.00001  -0.00004  -0.00002
5 O 4dxy        -0.00001  -0.00004  -0.00016  -0.00008   0.00047
5 O 4dyz        -0.00002   0.00025  -0.00004   0.00009  -0.00048
5 O 4dz^2       -0.00002   0.00002  -0.00008  -0.00033   0.00029
5 O 4dxz         0.00001   0.00005  -0.00005  -0.00005  -0.00014
5 O 4dx2-y2     -0.00005   0.00026   0.00012   0.00024  -0.00047
5 O 4f-3         0.00001  -0.00002   0.00000  -0.00002   0.00007
5 O 4f-2        -0.00000   0.00005  -0.00001  -0.00000  -0.00007
5 O 4f-1         0.00000  -0.00002   0.00000   0.00001   0.00001
5 O 4f+0        -0.00000   0.00001   0.00003   0.00004  -0.00004
5 O 4f+1         0.00000  -0.00004  -0.00000  -0.00003   0.00007
5 O 4f+2        -0.00001   0.00002  -0.00005  -0.00003   0.00005
5 O 4f+3        -0.00000   0.00003   0.00003   0.00004  -0.00011
6 C 1s          -0.00023   0.00035   0.00014  -0.00018  -0.00045
6 C 2s           0.00004   0.00553  -0.00216  -0.00020  -0.00819
6 C 3s           0.00026   0.00205  -0.00488  -0.00089  -0.00527
6 C 2px         -0.00020   0.00713  -0.00207   0.00451  -0.01452
6 C 2py         -0.00017  -0.00686   0.00399   0.00241   0.01033
6 C 2pz          0.00008   0.00129   0.00099   0.00386  -0.00226
6 C 3px         -0.00012   0.00103   0.00247   0.00405  -0.00486
6 C 3py         -0.00019  -0.00230   0.00229  -0.00170   0.00877
6 C 3pz          0.00013   0.00070  -0.00049   0.00320  -0.00473
6 C 3dxy        -0.00004  -0.00077   0.00110   0.00110   0.00025
6 C 3dyz         0.00004   0.00063   0.00042   0.00049  -0.00240
6 C 3dz^2       -0.00004  -0.00037  -0.00009  -0.00065   0.00146
6 C 3dxz        -0.00002  -0.00015  -0.00062  -0.00078   0.00229
6 C 3dx2-y2      0.00007   0.00044   0.00155   0.00273  -0.00472
7 H 1s          -0.00018  -0.00253  -0.00208  -0.00584   0.01269
7 H 2s           0.00004  -0.00130  -0.00320  -0.00441   0.00867
7 H 2px         -0.00001   0.00018  -0.00015   0.00001  -0.00025
7 H 2py         -0.00000  -0.00013   0.00005   0.00022   0.00008
7 H 2pz          0.00000  -0.00001   0.00005   0.00002   0.00004
8 O 1s          -0.00023  -0.00038   0.00010  -0.00008  -0.00002
8 O 2s           0.00246  -0.00709   0.01478   0.00326  -0.02513
8 O 3s           0.00069  -0.00186   0.00432   0.00094  -0.00729
8 O 4s           0.00394  -0.01007   0.02375   0.00452  -0.03955
8 O 2px         -0.00212   0.00811  -0.00847   0.00452   0.01216
8 O 2py         -0.00185  -0.01137  -0.00493   0.00155  -0.01797
8 O 2pz         -0.00050   0.00639  -0.00682  -0.01077   0.01444
8 O 3px         -0.00259   0.01058  -0.01056   0.00525   0.01612
8 O 3py         -0.00219  -0.01479  -0.00535   0.00221  -0.02413
8 O 3pz         -0.00072   0.00869  -0.00898  -0.01407   0.01947
8 O 4px         -0.00168   0.01004  -0.00986   0.00467   0.01636
8 O 4py         -0.00199  -0.01594  -0.00442   0.00114  -0.02583
8 O 4pz         -0.00006   0.00681  -0.00955  -0.01496   0.02013
8 O 3dxy        -0.00008  -0.00059  -0.00028  -0.00009  -0.00050
8 O 3dyz        -0.00006  -0.00028  -0.00011   0.00003  -0.00035
8 O 3dz^2        0.00007  -0.00019   0.00014  -0.00061  -0.00006
8 O 3dxz        -0.00007   0.00010  -0.00066  -0.00048   0.00080
8 O 3dx2-y2     -0.00012   0.00028  -0.00070   0.00028   0.00044
8 O 4dxy        -0.00017  -0.00194  -0.00076  -0.00015  -0.00244
8 O 4dyz        -0.00022  -0.00103  -0.00040   0.00017  -0.00075
8 O 4dz^2        0.00015  -0.00056   0.00007  -0.00250   0.00020
8 O 4dxz        -0.00010   0.00008  -0.00167  -0.00209   0.00264
8 O 4dx2-y2     -0.00022   0.00100  -0.00181   0.00081   0.00159
8 O 4f-3        -0.00008   0.00013  -0.00028   0.00018  -0.00000
8 O 4f-2        -0.00003   0.00020  -0.00027  -0.00022   0.00049
8 O 4f-1         0.00003   0.00006  -0.00008  -0.00037   0.00026
8 O 4f+0         0.00002   0.00012   0.00003   0.00020   0.00015
8 O 4f+1         0.00004   0.00001   0.00015   0.00006  -0.00005
8 O 4f+2         0.00002   0.00015   0.00007  -0.00014   0.00022
8 O 4f+3         0.00000   0.00036   0.00006   0.00005   0.00058
9 O 1s           0.00017   0.00019   0.00012  -0.00015  -0.00012
9 O 2s          -0.00004   0.00098  -0.00065   0.00093   0.00199
9 O 3s          -0.00000   0.00022  -0.00021   0.00029   0.00062
9 O 4s          -0.00035   0.00034  -0.00138   0.00356   0.00107
9 O 2px         -0.00001  -0.00038  -0.00196   0.00193   0.00272
9 O 2py          0.00027   0.00097   0.00167  -0.00116   0.00104
9 O 2pz          0.00024  -0.00076  -0.00053   0.00247   0.00222
9 O 3px         -0.00002  -0.00048  -0.00225   0.00193   0.00299
9 O 3py          0.00036   0.00110   0.00211  -0.00191   0.00092
9 O 3pz          0.00030  -0.00102  -0.00057   0.00272   0.00232
9 O 4px         -0.00011  -0.00040  -0.00360   0.00367   0.00351
9 O 4py          0.00022   0.00175   0.00199  -0.00072   0.00238
9 O 4pz          0.00033  -0.00149  -0.00097   0.00393   0.00406
9 O 3dxy         0.00000  -0.00002  -0.00004   0.00004  -0.00000
9 O 3dyz        -0.00000  -0.00003   0.00002  -0.00000  -0.00007
9 O 3dz^2        0.00000  -0.00004   0.00001   0.00000  -0.00002
9 O 3dxz         0.00001  -0.00004  -0.00003  -0.00004  -0.00002
9 O 3dx2-y2      0.00000   0.00002   0.00000  -0.00006  -0.00000
9 O 4dxy         0.00001  -0.00009   0.00013  -0.00007  -0.00048
9 O 4dyz         0.00004  -0.00028  -0.00008   0.00003  -0.00029
9 O 4dz^2        0.00001  -0.00007   0.00004  -0.00031  -0.00031
9 O 4dxz         0.00001  -0.00014   0.00006  -0.00021  -0.00055
9 O 4dx2-y2     -0.00005   0.00015  -0.00013   0.00021   0.00027
9 O 4f-3         0.00001  -0.00002   0.00001  -0.00002  -0.00009
9 O 4f-2        -0.00000  -0.00003  -0.00001   0.00002  -0.00003
9 O 4f-1        -0.00000   0.00001   0.00001   0.00001   0.00002
9 O 4f+0         0.00000   0.00002   0.00001  -0.00000   0.00003
9 O 4f+1         0.00000  -0.00004   0.00003  -0.00004  -0.00010
9 O 4f+2         0.00001  -0.00005  -0.00003  -0.00000  -0.00005
9 O 4f+3         0.00000   0.00001  -0.00005   0.00005   0.00010
10 O 1s          0.00009   0.00005   0.00002  -0.00009  -0.00006
10 O 2s          0.00019  -0.00844  -0.00027  -0.00804  -0.02531
10 O 3s          0.00007  -0.00242  -0.00013  -0.00218  -0.00707
10 O 4s          0.00046  -0.01283  -0.00074  -0.01176  -0.03674
10 O 2px         0.00001  -0.00650  -0.00869   0.00881   0.00345
10 O 2py        -0.00008   0.00281  -0.00594   0.01441   0.02050
10 O 2pz         0.00001   0.00489  -0.00319   0.00886   0.02598
10 O 3px         0.00001  -0.00786  -0.01100   0.01137   0.00540
10 O 3py        -0.00008   0.00356  -0.00789   0.01868   0.02617
10 O 3pz         0.00000   0.00641  -0.00428   0.01188   0.03357
10 O 4px         0.00002  -0.00592  -0.00957   0.01169   0.00981
10 O 4py        -0.00028   0.00322  -0.00661   0.01736   0.02401
10 O 4pz        -0.00011   0.00551  -0.00330   0.00969   0.03150
10 O 3dxy       -0.00000  -0.00031  -0.00019  -0.00004  -0.00048
10 O 3dyz       -0.00000   0.00020  -0.00001   0.00029   0.00071
10 O 3dz^2       0.00000   0.00001  -0.00004  -0.00005   0.00018
10 O 3dxz       -0.00001  -0.00039  -0.00023   0.00014  -0.00051
10 O 3dx2-y2     0.00000   0.00009   0.00021  -0.00036  -0.00019
10 O 4dxy       -0.00000  -0.00062  -0.00035  -0.00051  -0.00093
10 O 4dyz       -0.00002   0.00006  -0.00044   0.00088   0.00125
10 O 4dz^2       0.00000  -0.00009  -0.00013   0.00006   0.00050
10 O 4dxz        0.00000  -0.00111  -0.00048   0.00027  -0.00133
10 O 4dx2-y2     0.00001   0.00019   0.00094  -0.00134  -0.00098
10 O 4f-3        0.00000   0.00017   0.00008   0.00001   0.00016
10 O 4f-2        0.00000  -0.00002   0.00013  -0.00021  -0.00042
10 O 4f-1       -0.00000  -0.00008  -0.00000  -0.00008  -0.00021
10 O 4f+0       -0.00000  -0.00015  -0.00009   0.00004  -0.00014
10 O 4f+1        0.00000   0.00009   0.00009  -0.00012  -0.00024
10 O 4f+2        0.00000   0.00019   0.00008  -0.00002   0.00023
10 O 4f+3       -0.00000  -0.00004  -0.00019   0.00025   0.00023
11 C 1s         -0.00007   0.00035  -0.00014  -0.00018   0.00045
11 C 2s         -0.00004   0.00552   0.00213  -0.00026   0.00819
11 C 3s          0.00029   0.00208   0.00485  -0.00095   0.00526
11 C 2px        -0.00012   0.00622   0.00217   0.00330   0.01295
11 C 2py        -0.00005  -0.00597  -0.00403   0.00365  -0.00884
11 C 2pz         0.00001  -0.00499  -0.00075  -0.00410  -0.00880
11 C 3px        -0.00018   0.00070  -0.00253   0.00302   0.00306
11 C 3py        -0.00011  -0.00198  -0.00225  -0.00057  -0.00701
11 C 3pz        -0.00012  -0.00155  -0.00050  -0.00452  -0.00808
11 C 3dxy       -0.00006  -0.00086  -0.00077   0.00080  -0.00124
11 C 3dyz       -0.00002  -0.00025   0.00089  -0.00107  -0.00230
11 C 3dz^2      -0.00005  -0.00052   0.00061  -0.00121  -0.00316
11 C 3dxz       -0.00003  -0.00042  -0.00024  -0.00016  -0.00037
11 C 3dx2-y2     0.00005   0.00027  -0.00141   0.00262   0.00434
12 H 1s         -0.00012  -0.00251   0.00188  -0.00587  -0.01275
12 H 2s          0.00006  -0.00127   0.00306  -0.00445  -0.00871
12 H 2px        -0.00001   0.00017   0.00015   0.00000   0.00025
12 H 2py        -0.00001  -0.00012  -0.00006   0.00022  -0.00008
12 H 2pz        -0.00000  -0.00007  -0.00000   0.00004  -0.00005
13 O 1s          0.00027   0.00009   0.00016   0.00016  -0.00009
13 O 2s         -0.00117  -0.00896   0.00121   0.00118  -0.02523
13 O 3s         -0.00032  -0.00261   0.00022   0.00025  -0.00727
13 O 4s         -0.00149  -0.01760  -0.00033  -0.00009  -0.04248
13 O 2px         0.00093  -0.01067   0.00827   0.00271  -0.02107
13 O 2py         0.00190  -0.00084   0.00734   0.00449   0.00340
13 O 2pz        -0.00113  -0.00346   0.00481   0.01346  -0.01483
13 O 3px         0.00119  -0.01396   0.01075   0.00359  -0.02719
13 O 3py         0.00231  -0.00116   0.00891   0.00561   0.00321
13 O 3pz        -0.00144  -0.00483   0.00614   0.01695  -0.01954
13 O 4px         0.00137  -0.01518   0.00933   0.00477  -0.02942
13 O 4py         0.00236  -0.00297   0.01057   0.00348   0.00234
13 O 4pz        -0.00147  -0.00568   0.00576   0.01861  -0.02218
13 O 3dxy       -0.00005  -0.00028  -0.00030  -0.00035  -0.00079
13 O 3dyz       -0.00008  -0.00003  -0.00012   0.00019  -0.00040
13 O 3dz^2       0.00000  -0.00015  -0.00011  -0.00048  -0.00029
13 O 3dxz        0.00003   0.00023  -0.00012  -0.00043   0.00068
13 O 3dx2-y2    -0.00009   0.00042  -0.00038  -0.00005   0.00040
13 O 4dxy       -0.00006  -0.00073  -0.00088  -0.00074  -0.00178
13 O 4dyz       -0.00026  -0.00007  -0.00015   0.00058  -0.00111
13 O 4dz^2       0.00007  -0.00043  -0.00011  -0.00143  -0.00075
13 O 4dxz        0.00010   0.00026  -0.00041  -0.00159   0.00131
13 O 4dx2-y2    -0.00035   0.00137  -0.00140   0.00015   0.00113
13 O 4f-3       -0.00005   0.00011  -0.00031  -0.00007   0.00014
13 O 4f-2       -0.00001  -0.00001  -0.00015  -0.00027   0.00010
13 O 4f-1       -0.00003  -0.00003  -0.00006  -0.00013  -0.00008
13 O 4f+0        0.00003  -0.00007   0.00003  -0.00020  -0.00007
13 O 4f+1        0.00002   0.00007  -0.00003  -0.00022   0.00025
13 O 4f+2        0.00001   0.00018  -0.00007  -0.00014   0.00039
13 O 4f+3        0.00002   0.00020   0.00004   0.00012   0.00034
14 O 1s         -0.00019  -0.00010   0.00013   0.00034  -0.00025
14 O 2s         -0.00048   0.00140  -0.00059   0.00121   0.00138
14 O 3s         -0.00016   0.00046  -0.00024   0.00024   0.00050
14 O 4s         -0.00066   0.00293  -0.00114  -0.00375   0.00418
14 O 2px        -0.00124   0.00106   0.00048   0.00571  -0.00113
14 O 2py        -0.00016  -0.00066   0.00129   0.00135  -0.00161
14 O 2pz         0.00038  -0.00134   0.00196   0.00119  -0.00173
14 O 3px        -0.00153   0.00149   0.00067   0.00677  -0.00099
14 O 3py        -0.00018  -0.00069   0.00127   0.00131  -0.00178
14 O 3pz         0.00051  -0.00153   0.00207   0.00130  -0.00186
14 O 4px        -0.00153   0.00087   0.00083   0.00706  -0.00266
14 O 4py        -0.00010  -0.00172   0.00284   0.00315  -0.00280
14 O 4pz         0.00071  -0.00268   0.00449   0.00110  -0.00337
14 O 3dxy       -0.00001   0.00002  -0.00004   0.00002   0.00001
14 O 3dyz        0.00001  -0.00004   0.00002   0.00001  -0.00003
14 O 3dz^2       0.00000  -0.00001  -0.00001  -0.00008   0.00002
14 O 3dxz       -0.00001  -0.00002  -0.00002  -0.00002  -0.00007
14 O 3dx2-y2    -0.00001  -0.00001  -0.00003  -0.00008  -0.00000
14 O 4dxy        0.00000  -0.00020  -0.00007  -0.00005  -0.00036
14 O 4dyz       -0.00001  -0.00007  -0.00003  -0.00007  -0.00013
14 O 4dz^2       0.00001  -0.00022   0.00010   0.00002  -0.00024
14 O 4dxz        0.00004  -0.00021   0.00007  -0.00033  -0.00037
14 O 4dx2-y2     0.00003  -0.00014   0.00007  -0.00024  -0.00036
14 O 4f-3       -0.00001   0.00004  -0.00002   0.00004   0.00008
14 O 4f-2       -0.00000   0.00003   0.00004   0.00009   0.00006
14 O 4f-1        0.00000   0.00004  -0.00000   0.00005   0.00005
14 O 4f+0       -0.00000   0.00001  -0.00004  -0.00001   0.00002
14 O 4f+1        0.00000  -0.00000   0.00002   0.00002   0.00001
14 O 4f+2        0.00000   0.00002  -0.00003  -0.00005   0.00004
14 O 4f+3        0.00001  -0.00001  -0.00002  -0.00004  -0.00006
15 C 1s          0.00013   0.00024   0.00023   0.00037   0.00063
15 C 2s          0.00085   0.00269   0.00340   0.00428   0.00856
15 C 3s          0.00083   0.00099   0.00284   0.00691   0.00408
15 C 2px         0.00212  -0.00049   0.00532  -0.00041   0.00737
15 C 2py        -0.00025  -0.00640  -0.00139  -0.00516  -0.01392
15 C 2pz        -0.00105   0.00302  -0.00136   0.00789   0.00002
15 C 3px         0.00123  -0.00008   0.00064  -0.00316   0.00466
15 C 3py         0.00039  -0.00430   0.00404  -0.00137  -0.00709
15 C 3pz        -0.00067   0.00215  -0.00154   0.00477   0.00109
15 C 3dxy       -0.00036   0.00067  -0.00088   0.00030   0.00025
15 C 3dyz        0.00024   0.00053  -0.00081  -0.00229   0.00209
15 C 3dz^2      -0.00003  -0.00046   0.00033   0.00013  -0.00093
15 C 3dxz       -0.00022  -0.00054   0.00034   0.00101  -0.00207
15 C 3dx2-y2     0.00016  -0.00202   0.00176   0.00074  -0.00386
16 H 1s         -0.00049  -0.00385   0.00289   0.00379  -0.00990
16 H 2s         -0.00031  -0.00389   0.00295   0.00460  -0.01138
16 H 2px         0.00004   0.00006   0.00014   0.00009   0.00030
16 H 2py        -0.00001  -0.00018  -0.00013  -0.00009  -0.00039
16 H 2pz        -0.00003   0.00010  -0.00001   0.00019   0.00006
17 Fe 1s         0.98169   0.00002   0.00001   0.00072   0.00000
17 Fe 2s        -0.16083   0.00006   0.00003   0.00211   0.00000
17 Fe 3s        -0.00276   0.00128   0.00011   0.00987   0.00001
17 Fe 4s         0.00112  -0.03058   0.00055   0.04010  -0.00002
17 Fe 5s         0.00116  -0.00566   0.00001  -0.00338  -0.00001
17 Fe 6s        -0.00049   0.00093   0.00003   0.00408   0.00001
17 Fe 7s         0.00387  -0.01008  -0.00015  -0.02165   0.00003
17 Fe 2px       -0.00470  -0.00020  -0.00002   0.00003   0.00001
17 Fe 2py        0.02393  -0.00053   0.00003   0.00054  -0.00001
17 Fe 2pz        0.02307  -0.00005  -0.00012   0.00007   0.00004
17 Fe 3px        0.00328  -0.00563  -0.00027   0.00122   0.00013
17 Fe 3py       -0.00324  -0.01577   0.00044   0.00982  -0.00017
17 Fe 3pz       -0.00422  -0.00144  -0.00201   0.00125   0.00102
17 Fe 4px        0.00848  -0.02841  -0.00068   0.00399  -0.00028
17 Fe 4py       -0.00687  -0.01054   0.00161   0.07466   0.00020
17 Fe 4pz       -0.00225   0.00253  -0.00604   0.01004  -0.00194
17 Fe 5px       -0.00533   0.03235   0.00087  -0.00629  -0.00016
17 Fe 5py        0.00607   0.05032  -0.00183  -0.07713   0.00035
17 Fe 5pz        0.00165   0.00254   0.00675  -0.01010  -0.00158
17 Fe 6px        0.00005   0.00024  -0.00007  -0.00090  -0.00004
17 Fe 6py       -0.00022   0.00371   0.00005   0.00061   0.00004
17 Fe 6pz       -0.00003   0.00049  -0.00038   0.00022  -0.00027
17 Fe 7px        0.00358  -0.00177   0.00112   0.00013   0.00059
17 Fe 7py        0.00084  -0.01011  -0.00108  -0.00684  -0.00057
17 Fe 7pz       -0.00043  -0.00117   0.00738  -0.00105   0.00406
17 Fe 3dxy       0.06504  -0.15016   0.09883   0.44633  -0.09912
17 Fe 3dyz      -0.00810  -0.16049   0.66067  -0.12709  -0.00393
17 Fe 3dz^2     -0.03850   0.46685   0.15814   0.37483  -0.17269
17 Fe 3dxz      -0.00790   0.03154   0.04522   0.20472   0.66549
17 Fe 3dx2-y2    0.05305   0.46120   0.09895  -0.28975   0.09568
17 Fe 4dxy       0.00014   0.00677  -0.00555  -0.01855   0.00731
17 Fe 4dyz      -0.00002   0.00828  -0.03143   0.00565   0.00734
17 Fe 4dz^2     -0.00027  -0.02450  -0.00906  -0.01653   0.01260
17 Fe 4dxz      -0.00004  -0.00217   0.00387  -0.00875  -0.04177
17 Fe 4dx2-y2    0.00019  -0.02194  -0.00386   0.01157  -0.00499
17 Fe 5dxy       0.00005   0.00162  -0.00144  -0.00487   0.00177
17 Fe 5dyz      -0.00000   0.00215  -0.00847   0.00156   0.00168
17 Fe 5dz^2     -0.00009  -0.00640  -0.00234  -0.00458   0.00304
17 Fe 5dxz      -0.00002  -0.00063   0.00065  -0.00234  -0.01019
17 Fe 5dx2-y2    0.00006  -0.00545  -0.00110   0.00292  -0.00124
17 Fe 6dxy       0.00455  -0.00585   0.00090   0.01238   0.00011
17 Fe 6dyz      -0.00071  -0.00422   0.01381  -0.00115   0.00533
17 Fe 6dz^2     -0.00187   0.01387   0.00111   0.00455   0.00011
17 Fe 6dxz      -0.00036   0.00111   0.00927   0.00488   0.00469
17 Fe 6dx2-y2    0.00342   0.01117   0.00318  -0.01376   0.00145
17 Fe 4f-3      -0.00003  -0.00002  -0.00003   0.00012  -0.00004
17 Fe 4f-2      -0.00000  -0.00003   0.00001  -0.00007  -0.00024
17 Fe 4f-1       0.00001  -0.00027  -0.00007  -0.00011   0.00006
17 Fe 4f+0      -0.00001  -0.00007   0.00007  -0.00005   0.00001
17 Fe 4f+1       0.00001  -0.00008  -0.00001   0.00000  -0.00005
17 Fe 4f+2      -0.00000  -0.00007   0.00017  -0.00002  -0.00002
17 Fe 4f+3       0.00004  -0.00008   0.00003   0.00011  -0.00005
17 Fe 5f-3      -0.00012  -0.00216  -0.00035   0.00136  -0.00014
17 Fe 5f-2      -0.00006   0.00025  -0.00066  -0.00032   0.00002
17 Fe 5f-1      -0.00001  -0.00196  -0.00053   0.00013  -0.00006
17 Fe 5f+0      -0.00005  -0.00049   0.00098  -0.00006  -0.00031
17 Fe 5f+1       0.00008  -0.00059  -0.00012   0.00022  -0.00030
17 Fe 5f+2      -0.00005  -0.00077   0.00143   0.00026   0.00076
17 Fe 5f+3       0.00029  -0.00116   0.00016   0.00031   0.00014
17 Fe 5g-4      -0.00013  -0.00002  -0.00021   0.00023  -0.00010
17 Fe 5g-3       0.00003   0.00006  -0.00091  -0.00001  -0.00119
17 Fe 5g-2       0.00008  -0.00063   0.00035   0.00033   0.00009
17 Fe 5g-1      -0.00001  -0.00026   0.00081  -0.00013   0.00059
17 Fe 5g+0      -0.00007   0.00071   0.00010   0.00040  -0.00059
17 Fe 5g+1      -0.00003   0.00011   0.00070   0.00058   0.00171
17 Fe 5g+2       0.00007   0.00021   0.00024  -0.00069   0.00061
17 Fe 5g+3       0.00002   0.00021   0.00007  -0.00036  -0.00060
17 Fe 5g+4       0.00001  -0.00141  -0.00017   0.00147  -0.00037
18 O 1s         -0.00006  -0.00037  -0.00011  -0.00008   0.00002
18 O 2s          0.00210  -0.00720  -0.01455   0.00361   0.02514
18 O 3s          0.00060  -0.00189  -0.00425   0.00104   0.00729
18 O 4s          0.00348  -0.01030  -0.02338   0.00509   0.03962
18 O 2px        -0.00224   0.00566   0.00655   0.00718  -0.00704
18 O 2py        -0.00128  -0.00884   0.00687  -0.00136   0.01283
18 O 2pz        -0.00019  -0.01126  -0.00705   0.00936   0.02147
18 O 3px        -0.00276   0.00729   0.00800   0.00877  -0.00924
18 O 3py        -0.00150  -0.01141   0.00794  -0.00159   0.01721
18 O 3pz        -0.00016  -0.01501  -0.00942   0.01245   0.02886
18 O 4px        -0.00204   0.00724   0.00716   0.00843  -0.00922
18 O 4py        -0.00126  -0.01307   0.00717  -0.00287   0.01866
18 O 4pz        -0.00084  -0.01345  -0.01004   0.01318   0.03000
18 O 3dxy       -0.00008  -0.00043   0.00041  -0.00014   0.00016
18 O 3dyz        0.00006   0.00036  -0.00036   0.00025  -0.00023
18 O 3dz^2       0.00006   0.00010   0.00009  -0.00069  -0.00051
18 O 3dxz        0.00010  -0.00037  -0.00072   0.00004   0.00088
18 O 3dx2-y2    -0.00009   0.00031   0.00043   0.00037  -0.00028
18 O 4dxy       -0.00013  -0.00144   0.00103  -0.00040   0.00144
18 O 4dyz        0.00019   0.00128  -0.00114   0.00101  -0.00041
18 O 4dz^2       0.00018   0.00030   0.00035  -0.00291  -0.00193
18 O 4dxz        0.00015  -0.00097  -0.00171   0.00038   0.00302
18 O 4dx2-y2    -0.00018   0.00118   0.00111   0.00125  -0.00096
18 O 4f-3       -0.00006   0.00010   0.00017   0.00018   0.00007
18 O 4f-2        0.00004  -0.00025  -0.00019   0.00000   0.00039
18 O 4f-1        0.00005   0.00028   0.00005  -0.00023  -0.00056
18 O 4f+0       -0.00002   0.00003   0.00021  -0.00040  -0.00023
18 O 4f+1        0.00006  -0.00008  -0.00021  -0.00015   0.00013
18 O 4f+2       -0.00001  -0.00015   0.00013   0.00001   0.00025
18 O 4f+3       -0.00000   0.00022  -0.00011   0.00012  -0.00033
19 Fe 1s         0.00007  -0.00001  -0.00001  -0.00087  -0.00000
19 Fe 2s         0.00019  -0.00004  -0.00003  -0.00256  -0.00000
19 Fe 3s         0.00118  -0.00154  -0.00017  -0.01265  -0.00003
19 Fe 4s        -0.00123   0.00541  -0.00066  -0.04422  -0.00010
19 Fe 5s        -0.00138   0.00335  -0.00001   0.00046  -0.00000
19 Fe 6s         0.00033   0.00103  -0.00003  -0.00219  -0.00001
19 Fe 7s        -0.00355   0.00101   0.00012   0.01161   0.00003
19 Fe 2px       -0.00010   0.00039   0.00004   0.00128  -0.00001
19 Fe 2py       -0.00017   0.00009  -0.00002   0.00023   0.00001
19 Fe 2pz       -0.00012  -0.00004   0.00013  -0.00015  -0.00009
19 Fe 3px       -0.00102   0.01183   0.00048   0.03141  -0.00039
19 Fe 3py       -0.00006   0.00063   0.00007   0.00619   0.00050
19 Fe 3pz        0.00014  -0.00158   0.00018  -0.00357  -0.00339
19 Fe 4px       -0.00084   0.02883   0.00311   0.11958  -0.00039
19 Fe 4py       -0.00238  -0.00687  -0.00079   0.03754   0.00082
19 Fe 4pz       -0.00020  -0.00509   0.00902  -0.01178  -0.00530
19 Fe 5px        0.00227  -0.04335  -0.00291  -0.14572   0.00137
19 Fe 5py        0.00176  -0.00359   0.00019  -0.03673  -0.00196
19 Fe 5pz       -0.00013   0.00564  -0.00497   0.01551   0.01297
19 Fe 6px        0.00010  -0.00274   0.00013  -0.00517   0.00011
19 Fe 6py        0.00002   0.00123  -0.00022  -0.00131  -0.00013
19 Fe 6pz       -0.00001   0.00056   0.00140   0.00053   0.00089
19 Fe 7px        0.00081   0.00245  -0.00075   0.00155  -0.00046
19 Fe 7py        0.00162  -0.00519   0.00080  -0.00022   0.00046
19 Fe 7pz        0.00014  -0.00109  -0.00545  -0.00020  -0.00324
19 Fe 3dxy      -0.00095   0.49270  -0.09491  -0.41428   0.09473
19 Fe 3dyz       0.00042  -0.05238   0.05731  -0.01454   0.64062
19 Fe 3dz^2      0.00206   0.14998  -0.15067   0.44488   0.16369
19 Fe 3dxz       0.00130   0.17098   0.65162   0.08275  -0.01022
19 Fe 3dx2-y2   -0.00543  -0.41815   0.09367  -0.27360   0.08600
19 Fe 4dxy       0.00008  -0.05453   0.01223   0.05105  -0.01467
19 Fe 4dyz       0.00004   0.00603  -0.00151   0.00137  -0.09341
19 Fe 4dz^2     -0.00002  -0.01988   0.01944  -0.05629  -0.02542
19 Fe 4dxz       0.00008  -0.02040  -0.07836  -0.01133   0.00717
19 Fe 4dx2-y2   -0.00031   0.05073  -0.01042   0.03889  -0.01181
19 Fe 5dxy       0.00005  -0.01168   0.00262   0.01093  -0.00320
19 Fe 5dyz       0.00001   0.00128  -0.00046   0.00035  -0.02045
19 Fe 5dz^2     -0.00005  -0.00411   0.00417  -0.01205  -0.00554
19 Fe 5dxz       0.00000  -0.00430  -0.01694  -0.00237   0.00147
19 Fe 5dx2-y2   -0.00002   0.01064  -0.00228   0.00794  -0.00260
19 Fe 6dxy       0.00009   0.00591  -0.00120  -0.00552  -0.00172
19 Fe 6dyz       0.00006  -0.00102  -0.00159  -0.00092  -0.00796
19 Fe 6dz^2     -0.00020   0.00314  -0.00184   0.00905  -0.00297
19 Fe 6dxz      -0.00003   0.00235   0.00605   0.00204   0.00367
19 Fe 6dx2-y2   -0.00015  -0.00466   0.00056  -0.00422  -0.00063
19 Fe 4f-3       0.00001   0.00013  -0.00004  -0.00030   0.00009
19 Fe 4f-2      -0.00000  -0.00001   0.00013   0.00001   0.00040
19 Fe 4f-1       0.00000  -0.00008  -0.00003   0.00013  -0.00004
19 Fe 4f+0       0.00000  -0.00008  -0.00020  -0.00009  -0.00008
19 Fe 4f+1      -0.00001   0.00014  -0.00012   0.00038   0.00010
19 Fe 4f+2      -0.00000   0.00010   0.00032   0.00009  -0.00013
19 Fe 4f+3       0.00001  -0.00036   0.00007  -0.00014   0.00005
19 Fe 5f-3       0.00012   0.00111  -0.00022  -0.00375   0.00016
19 Fe 5f-2      -0.00003  -0.00003   0.00215   0.00056   0.00094
19 Fe 5f-1       0.00002  -0.00032  -0.00032   0.00158  -0.00007
19 Fe 5f+0       0.00005  -0.00075  -0.00230  -0.00080  -0.00040
19 Fe 5f+1      -0.00008   0.00169  -0.00098   0.00392   0.00010
19 Fe 5f+2      -0.00004   0.00121   0.00293   0.00106  -0.00005
19 Fe 5f+3       0.00021  -0.00379   0.00085  -0.00276   0.00014
19 Fe 5g-4      -0.00002  -0.00011   0.00002   0.00001   0.00012
19 Fe 5g-3       0.00000   0.00001   0.00014  -0.00001   0.00019
19 Fe 5g-2       0.00000  -0.00005  -0.00006   0.00019   0.00002
19 Fe 5g-1      -0.00000  -0.00004  -0.00002  -0.00014  -0.00016
19 Fe 5g+0      -0.00000   0.00007  -0.00000   0.00010  -0.00006
19 Fe 5g+1      -0.00000   0.00000  -0.00002   0.00011  -0.00004
19 Fe 5g+2       0.00001   0.00005   0.00002   0.00003   0.00011
19 Fe 5g+3       0.00000   0.00000   0.00005   0.00001  -0.00039
19 Fe 5g+4      -0.00001  -0.00010   0.00005   0.00028  -0.00004
20 O 1s         -0.00036  -0.00012   0.00001  -0.00001   0.00033
20 O 2s          0.00007   0.00558   0.01479  -0.01191  -0.02434
20 O 3s          0.00001   0.00170   0.00422  -0.00326  -0.00692
20 O 4s          0.00012   0.00998   0.02185  -0.01885  -0.03876
20 O 2px         0.00008   0.01106   0.00620   0.00836   0.01596
20 O 2py        -0.00025  -0.00128   0.00836  -0.00644  -0.01033
20 O 2pz        -0.00030  -0.00170   0.01034  -0.01513  -0.02948
20 O 3px         0.00012   0.01390   0.00695   0.01140   0.02108
20 O 3py        -0.00034  -0.00170   0.01002  -0.00857  -0.01344
20 O 3pz        -0.00041  -0.00178   0.01347  -0.02002  -0.03901
20 O 4px         0.00000   0.01270   0.00713   0.01094   0.02366
20 O 4py        -0.00048  -0.00322   0.01109  -0.00392  -0.00701
20 O 4pz        -0.00049  -0.00340   0.01518  -0.01782  -0.03409
20 O 3dxy       -0.00001  -0.00044  -0.00033  -0.00010   0.00005
20 O 3dyz        0.00001  -0.00021  -0.00060   0.00038   0.00077
20 O 3dz^2       0.00002  -0.00005  -0.00002  -0.00003   0.00028
20 O 3dxz        0.00000  -0.00043  -0.00030  -0.00011   0.00002
20 O 3dx2-y2    -0.00000  -0.00005   0.00036  -0.00039  -0.00035
20 O 4dxy        0.00001  -0.00092  -0.00086  -0.00083  -0.00106
20 O 4dyz        0.00004  -0.00038  -0.00112   0.00105   0.00223
20 O 4dz^2       0.00003  -0.00019   0.00002   0.00005   0.00109
20 O 4dxz        0.00001  -0.00113  -0.00089  -0.00012   0.00059
20 O 4dx2-y2    -0.00002  -0.00063   0.00067  -0.00123  -0.00112
20 O 4f-3        0.00000   0.00021   0.00007   0.00022   0.00031
20 O 4f-2       -0.00001   0.00005   0.00022  -0.00020  -0.00039
20 O 4f-1       -0.00002  -0.00008  -0.00014   0.00016   0.00003
20 O 4f+0        0.00001  -0.00016  -0.00022   0.00008   0.00025
20 O 4f+1       -0.00001  -0.00015   0.00003  -0.00015  -0.00046
20 O 4f+2        0.00002   0.00018   0.00002   0.00007   0.00026
20 O 4f+3        0.00000  -0.00005  -0.00019   0.00011   0.00000
21 O 1s         -0.00024  -0.00012  -0.00001  -0.00001  -0.00032
21 O 2s          0.00003   0.00553  -0.01506  -0.01157   0.02435
21 O 3s         -0.00000   0.00168  -0.00429  -0.00317   0.00692
21 O 4s          0.00009   0.00991  -0.02228  -0.01832   0.03878
21 O 2px        -0.00016   0.01106  -0.00311   0.01201  -0.02290
21 O 2py        -0.00017  -0.00131  -0.01126  -0.00976   0.01739
21 O 2pz         0.00068  -0.00175   0.00943   0.00974  -0.01983
21 O 3px        -0.00017   0.01380  -0.00292   0.01618  -0.03027
21 O 3py        -0.00023  -0.00163  -0.01380  -0.01297   0.02279
21 O 3pz         0.00088  -0.00255   0.01222   0.01278  -0.02632
21 O 4px        -0.00028   0.01302  -0.00270   0.01530  -0.03166
21 O 4py        -0.00034  -0.00358  -0.01520  -0.00791   0.01516
21 O 4pz         0.00092  -0.00114   0.01350   0.01214  -0.02285
21 O 3dxy       -0.00001  -0.00045   0.00022  -0.00021   0.00018
21 O 3dyz       -0.00002   0.00037  -0.00052  -0.00014   0.00066
21 O 3dz^2       0.00002  -0.00008  -0.00015  -0.00022   0.00012
21 O 3dxz        0.00000   0.00025  -0.00011   0.00012  -0.00012
21 O 3dx2-y2    -0.00001   0.00013  -0.00058  -0.00042   0.00054
21 O 4dxy       -0.00002  -0.00102   0.00072  -0.00109   0.00154
21 O 4dyz       -0.00006   0.00091  -0.00107  -0.00029   0.00176
21 O 4dz^2      -0.00001  -0.00036  -0.00022  -0.00036  -0.00025
21 O 4dxz       -0.00001   0.00081  -0.00046   0.00014   0.00021
21 O 4dx2-y2    -0.00003  -0.00017  -0.00118  -0.00136   0.00181
21 O 4f-3        0.00001   0.00025   0.00002   0.00030  -0.00054
21 O 4f-2        0.00001  -0.00010   0.00025   0.00017  -0.00041
21 O 4f-1       -0.00001  -0.00009   0.00014   0.00008  -0.00003
21 O 4f+0       -0.00001   0.00015  -0.00009   0.00008  -0.00003
21 O 4f+1       -0.00001   0.00001  -0.00004  -0.00003   0.00022
21 O 4f+2       -0.00003  -0.00014  -0.00002  -0.00001   0.00026
21 O 4f+3       -0.00000  -0.00013   0.00027   0.00015  -0.00005
22 Al 1s        -0.00003  -0.00016   0.00000   0.00018   0.00000
22 Al 2s        -0.00043  -0.00172   0.00002   0.00172   0.00001
22 Al 3s         0.00272  -0.00694  -0.00007  -0.00779  -0.00004
22 Al 4s         0.00031   0.00018  -0.00000  -0.00022  -0.00000
22 Al 5s         0.00136   0.01585   0.00005   0.00858  -0.00004
22 Al 2px       -0.00021  -0.00082   0.00000   0.00073   0.00003
22 Al 2py        0.00053   0.00032  -0.00002  -0.00258  -0.00004
22 Al 2pz        0.00014   0.00017  -0.00003  -0.00046   0.00022
22 Al 3px        0.00220  -0.00302   0.00003  -0.00377  -0.00004
22 Al 3py       -0.00240  -0.00067   0.00005   0.00901   0.00004
22 Al 3pz       -0.00054   0.00033   0.00037   0.00181  -0.00005
22 Al 4px        0.00008  -0.00007  -0.00001  -0.00016  -0.00000
22 Al 4py       -0.00013   0.00005   0.00001   0.00039   0.00001
22 Al 4pz       -0.00002   0.00002  -0.00004   0.00008  -0.00002
22 Al 5px       -0.00066   0.00531  -0.00038   0.00144  -0.00021
22 Al 5py       -0.00076  -0.00329   0.00032  -0.00337   0.00020
22 Al 5pz       -0.00004  -0.00123  -0.00249  -0.00067  -0.00133
22 Al 3dxy      -0.00017  -0.00179   0.00039   0.00018   0.00024
22 Al 3dyz       0.00019  -0.00031  -0.00231  -0.00106   0.00181
22 Al 3dz^2     -0.00063   0.00181   0.00064   0.00278   0.00039
22 Al 3dxz      -0.00020   0.00008  -0.00474   0.00044   0.00030
22 Al 3dx2-y2   -0.00039   0.00069  -0.00100   0.00234   0.00029
22 Al 4dxy      -0.00135   0.00037  -0.00010   0.00432   0.00002
22 Al 4dyz       0.00043  -0.00008  -0.00041  -0.00237  -0.00143
22 Al 4dz^2     -0.00077   0.00079  -0.00023   0.00328   0.00001
22 Al 4dxz      -0.00050   0.00042   0.00062   0.00054  -0.00143
22 Al 4dx2-y2   -0.00021  -0.00120   0.00013   0.00645  -0.00040
22 Al 4f-3      -0.00022  -0.00059   0.00010  -0.00076   0.00013
22 Al 4f-2       0.00030   0.00003   0.00010  -0.00078   0.00020
22 Al 4f-1       0.00033  -0.00024   0.00018  -0.00268  -0.00002
22 Al 4f+0       0.00017  -0.00009  -0.00035  -0.00071   0.00017
22 Al 4f+1      -0.00007   0.00001  -0.00000  -0.00087   0.00023
22 Al 4f+2       0.00012  -0.00018  -0.00050  -0.00143  -0.00044
22 Al 4f+3      -0.00044   0.00011  -0.00004   0.00257  -0.00003
23 O 1s          0.00008  -0.00033  -0.00001  -0.00064  -0.00000
23 O 2s          0.00025   0.04157   0.00027   0.02080   0.00013
23 O 3s          0.00010   0.01191   0.00007   0.00570   0.00004
23 O 4s         -0.00208   0.07342   0.00043   0.03427   0.00023
23 O 2px        -0.00585   0.01208   0.00208   0.04462   0.00034
23 O 2py         0.00155  -0.00330  -0.00130   0.00953  -0.00023
23 O 2pz         0.00053  -0.00225   0.01050  -0.00523   0.00149
23 O 3px        -0.00758   0.01584   0.00265   0.05724   0.00043
23 O 3py         0.00190  -0.00456  -0.00164   0.01281  -0.00029
23 O 3pz         0.00067  -0.00299   0.01333  -0.00662   0.00184
23 O 4px        -0.00787   0.01539   0.00255   0.07108   0.00041
23 O 4py         0.00155  -0.02255  -0.00116   0.02406  -0.00025
23 O 4pz         0.00071  -0.00548   0.01142  -0.00699   0.00166
23 O 3dxy       -0.00020  -0.00121  -0.00003  -0.00013  -0.00002
23 O 3dyz        0.00004  -0.00025  -0.00105   0.00011  -0.00021
23 O 3dz^2      -0.00001   0.00105  -0.00005   0.00047  -0.00003
23 O 3dxz       -0.00002  -0.00007  -0.00084   0.00031  -0.00009
23 O 3dx2-y2    -0.00006   0.00110  -0.00029  -0.00139  -0.00004
23 O 4dxy       -0.00061  -0.00396  -0.00016  -0.00055  -0.00010
23 O 4dyz        0.00011  -0.00041  -0.00323   0.00055  -0.00019
23 O 4dz^2       0.00008   0.00191  -0.00024   0.00050  -0.00015
23 O 4dxz       -0.00005  -0.00060  -0.00229   0.00064   0.00041
23 O 4dx2-y2    -0.00026   0.00353  -0.00085  -0.00402   0.00003
23 O 4f-3        0.00004  -0.00125   0.00016   0.00029   0.00002
23 O 4f-2       -0.00001   0.00015  -0.00001   0.00009  -0.00006
23 O 4f-1       -0.00002  -0.00049   0.00029   0.00005   0.00007
23 O 4f+0       -0.00002  -0.00018  -0.00020   0.00004  -0.00004
23 O 4f+1        0.00006   0.00002   0.00013  -0.00004   0.00001
23 O 4f+2        0.00004  -0.00029  -0.00090   0.00018  -0.00017
23 O 4f+3       -0.00010  -0.00028  -0.00018  -0.00067  -0.00005
24 C 1s         -0.00027  -0.00010   0.00020  -0.00001   0.00002
24 C 2s         -0.00167  -0.00461   0.00106   0.00344   0.00090
24 C 3s         -0.00264  -0.00334   0.00769   0.00746   0.00404
24 C 2px         0.00211   0.00378  -0.01732   0.01252   0.01327
24 C 2py         0.00151  -0.01517  -0.01679  -0.00410   0.01758
24 C 2pz        -0.00197   0.00177  -0.00104   0.01318   0.00402
24 C 3px         0.00061   0.00032  -0.00307   0.00699   0.00713
24 C 3py         0.00036  -0.00737  -0.00081  -0.00182   0.01225
24 C 3pz        -0.00128   0.00293  -0.00005   0.01119   0.00479
24 C 3dxy       -0.00012   0.00217  -0.00042   0.00184   0.00107
24 C 3dyz        0.00020  -0.00041   0.00006  -0.00251  -0.00348
24 C 3dz^2       0.00010  -0.00135   0.00033  -0.00093  -0.00083
24 C 3dxz        0.00012   0.00131  -0.00002  -0.00128  -0.00287
24 C 3dx2-y2    -0.00002   0.00008   0.00130  -0.00022   0.00293
25 H 1s          0.00060  -0.00538   0.00101  -0.00524  -0.00343
25 H 2s          0.00022  -0.00591  -0.00037  -0.00240   0.00152
25 H 2px         0.00005   0.00009  -0.00051   0.00029   0.00037
25 H 2py         0.00003  -0.00036  -0.00047  -0.00018   0.00021
25 H 2pz        -0.00003   0.00009   0.00005   0.00011  -0.00018
26 C 1s         -0.00019  -0.00010  -0.00020  -0.00000  -0.00002
26 C 2s         -0.00172  -0.00465  -0.00111   0.00344  -0.00096
26 C 3s         -0.00260  -0.00340  -0.00772   0.00757  -0.00412
26 C 2px         0.00322   0.00266   0.01720   0.00794  -0.01238
26 C 2py         0.00096  -0.01389   0.01721  -0.00027  -0.01849
26 C 2pz         0.00149  -0.00679  -0.00119  -0.01666   0.00270
26 C 3px         0.00112  -0.00074   0.00306   0.00353  -0.00605
26 C 3py        -0.00011  -0.00626   0.00102   0.00151  -0.01332
26 C 3pz         0.00100  -0.00481  -0.00078  -0.01272   0.00310
26 C 3dxy       -0.00017   0.00262   0.00050   0.00214  -0.00124
26 C 3dyz       -0.00010   0.00022   0.00051   0.00217  -0.00242
26 C 3dz^2       0.00010  -0.00058  -0.00030  -0.00042   0.00051
26 C 3dxz        0.00002  -0.00108   0.00035   0.00141  -0.00182
26 C 3dx2-y2    -0.00024  -0.00017  -0.00117   0.00085  -0.00444
27 H 1s          0.00083  -0.00537  -0.00114  -0.00525   0.00338
27 H 2s          0.00033  -0.00588   0.00030  -0.00245  -0.00156
27 H 2px         0.00006   0.00005   0.00053   0.00023  -0.00042
27 H 2py         0.00004  -0.00032   0.00046  -0.00015  -0.00016
27 H 2pz         0.00001  -0.00020   0.00004  -0.00023  -0.00012
               #6        #7        #8        #9        #10      
0 O 1s           0.00001   0.00021   0.00011  -0.00010   0.00017
0 O 2s          -0.00141  -0.00171  -0.00318   0.00242  -0.00082
0 O 3s          -0.00044  -0.00060  -0.00101   0.00078  -0.00025
0 O 4s          -0.00119  -0.00409  -0.00624   0.00226  -0.00660
0 O 2px         -0.00229   0.00091  -0.00197   0.00438   0.00025
0 O 2py         -0.00038   0.00171   0.00191  -0.00158   0.00104
0 O 2pz          0.00157  -0.00192   0.00485  -0.00114  -0.00253
0 O 3px         -0.00269   0.00096  -0.00246   0.00531  -0.00026
0 O 3py         -0.00022   0.00167   0.00248  -0.00195   0.00078
0 O 3pz          0.00179  -0.00201   0.00572  -0.00133  -0.00255
0 O 4px         -0.00283   0.00162  -0.00059   0.00529   0.00091
0 O 4py         -0.00159   0.00397   0.00352  -0.00396   0.00268
0 O 4pz          0.00247  -0.00366   0.00659   0.00046  -0.00421
0 O 3dxy         0.00003   0.00001   0.00002   0.00003   0.00001
0 O 3dyz        -0.00000  -0.00004   0.00003  -0.00006  -0.00009
0 O 3dz^2       -0.00001  -0.00001  -0.00006   0.00002  -0.00002
0 O 3dxz        -0.00001  -0.00005  -0.00005   0.00004   0.00002
0 O 3dx2-y2      0.00002  -0.00006  -0.00001  -0.00005  -0.00010
0 O 4dxy         0.00012   0.00044   0.00035  -0.00031  -0.00007
0 O 4dyz         0.00007  -0.00042   0.00009   0.00017  -0.00008
0 O 4dz^2       -0.00004   0.00022   0.00013  -0.00003   0.00016
0 O 4dxz        -0.00016  -0.00029  -0.00053   0.00014   0.00007
0 O 4dx2-y2      0.00007   0.00018   0.00057  -0.00028   0.00016
0 O 4f-3        -0.00001  -0.00005  -0.00005   0.00007  -0.00001
0 O 4f-2         0.00003   0.00002   0.00001  -0.00001  -0.00001
0 O 4f-1        -0.00002  -0.00007  -0.00006   0.00001  -0.00003
0 O 4f+0        -0.00001  -0.00003   0.00001  -0.00002  -0.00000
0 O 4f+1         0.00002   0.00002   0.00004   0.00001   0.00001
0 O 4f+2        -0.00003  -0.00005  -0.00004  -0.00003  -0.00003
0 O 4f+3         0.00004   0.00007   0.00008  -0.00006   0.00003
1 O 1s          -0.00008   0.00009   0.00000  -0.00016   0.00015
1 O 2s          -0.00122   0.02594  -0.00070   0.00028   0.01277
1 O 3s          -0.00034   0.00749  -0.00026   0.00017   0.00361
1 O 4s          -0.00041   0.04359  -0.00111   0.00350   0.02165
1 O 2px         -0.00083   0.01703  -0.00304  -0.00390   0.01228
1 O 2py         -0.00032   0.00175   0.00650  -0.00653   0.00459
1 O 2pz          0.00154  -0.02057  -0.00785   0.00230  -0.01054
1 O 3px         -0.00096   0.02179  -0.00324  -0.00503   0.01595
1 O 3py         -0.00046   0.00352   0.00782  -0.00773   0.00622
1 O 3pz          0.00193  -0.02661  -0.01033   0.00321  -0.01390
1 O 4px         -0.00132   0.02381  -0.00452  -0.00427   0.01569
1 O 4py          0.00036   0.00536   0.00907  -0.00946   0.00723
1 O 4pz          0.00211  -0.02929  -0.01066   0.00138  -0.01334
1 O 3dxy         0.00001   0.00043  -0.00037   0.00025   0.00015
1 O 3dyz         0.00001  -0.00046   0.00020  -0.00028  -0.00005
1 O 3dz^2        0.00001  -0.00033  -0.00054   0.00003  -0.00010
1 O 3dxz        -0.00003   0.00096  -0.00003  -0.00003   0.00054
1 O 3dx2-y2      0.00002  -0.00032   0.00008   0.00022  -0.00038
1 O 4dxy        -0.00009   0.00101  -0.00095   0.00073   0.00037
1 O 4dyz         0.00003  -0.00123   0.00037  -0.00079   0.00006
1 O 4dz^2        0.00002  -0.00063  -0.00194   0.00033  -0.00018
1 O 4dxz         0.00003   0.00206   0.00042  -0.00055   0.00127
1 O 4dx2-y2     -0.00008  -0.00105   0.00014   0.00093  -0.00135
1 O 4f-3         0.00000  -0.00020   0.00001   0.00017  -0.00019
1 O 4f-2        -0.00002   0.00036   0.00011  -0.00016   0.00021
1 O 4f-1         0.00001  -0.00019  -0.00033   0.00011  -0.00011
1 O 4f+0        -0.00002   0.00009   0.00008   0.00008   0.00002
1 O 4f+1        -0.00001  -0.00028  -0.00006   0.00002  -0.00010
1 O 4f+2         0.00002   0.00026  -0.00003   0.00003   0.00008
1 O 4f+3        -0.00000  -0.00014   0.00018  -0.00006  -0.00008
2 C 1s          -0.00008  -0.00050  -0.00031   0.00012   0.00013
2 C 2s           0.00001  -0.00817   0.00225  -0.00195  -0.00169
2 C 3s          -0.00182  -0.00397   0.00684  -0.00342  -0.00148
2 C 2px         -0.00030  -0.00612  -0.00346  -0.00294   0.00143
2 C 2py         -0.00012   0.01391  -0.00291   0.00213   0.00700
2 C 2pz         -0.00057   0.00610  -0.00822   0.00182   0.00386
2 C 3px         -0.00021  -0.00399  -0.00317  -0.00140  -0.00140
2 C 3py          0.00000   0.00622   0.00257  -0.00383   0.00682
2 C 3pz         -0.00050   0.00446  -0.00664   0.00019   0.00469
2 C 3dxy        -0.00030   0.00067   0.00011   0.00088  -0.00033
2 C 3dyz         0.00000   0.00003   0.00184  -0.00040  -0.00006
2 C 3dz^2       -0.00025   0.00267   0.00065  -0.00019   0.00142
2 C 3dxz         0.00015  -0.00216  -0.00056   0.00058  -0.00098
2 C 3dx2-y2     -0.00023   0.00367   0.00022  -0.00114   0.00242
3 H 1s          -0.00130   0.01020  -0.00027  -0.00045   0.00624
3 H 2s          -0.00166   0.01171   0.00254  -0.00083   0.00534
3 H 2px         -0.00004  -0.00024  -0.00006   0.00000   0.00007
3 H 2py         -0.00001   0.00039  -0.00009   0.00013   0.00008
3 H 2pz          0.00002   0.00024  -0.00011   0.00000   0.00007
4 O 1s           0.00000   0.00009   0.00005   0.00023  -0.00015
4 O 2s           0.00487  -0.02564   0.00775  -0.00121  -0.01151
4 O 3s           0.00125  -0.00724   0.00209  -0.00048  -0.00324
4 O 4s           0.00679  -0.03979   0.01273  -0.00520  -0.01671
4 O 2px         -0.00077  -0.00295  -0.00654  -0.00668  -0.00591
4 O 2py         -0.00183   0.02754  -0.01606  -0.00455   0.00766
4 O 2pz          0.02286  -0.01908   0.00622   0.00274  -0.00593
4 O 3px         -0.00093  -0.00256  -0.00830  -0.00796  -0.00688
4 O 3py         -0.00259   0.03523  -0.02116  -0.00618   0.00961
4 O 3pz          0.02975  -0.02513   0.00846   0.00338  -0.00758
4 O 4px         -0.00098  -0.00044  -0.01045  -0.01048  -0.00738
4 O 4py         -0.00260   0.03536  -0.01766  -0.00075   0.01127
4 O 4pz          0.02729  -0.02547   0.00608   0.00186  -0.00994
4 O 3dxy        -0.00011  -0.00075   0.00009  -0.00017  -0.00038
4 O 3dyz         0.00047  -0.00044   0.00012  -0.00000  -0.00018
4 O 3dz^2       -0.00035  -0.00034   0.00010  -0.00010  -0.00015
4 O 3dxz        -0.00042   0.00035   0.00007   0.00005   0.00022
4 O 3dx2-y2     -0.00014  -0.00027   0.00042   0.00014   0.00001
4 O 4dxy        -0.00042  -0.00171   0.00057  -0.00020  -0.00052
4 O 4dyz         0.00133  -0.00047   0.00046   0.00060   0.00000
4 O 4dz^2       -0.00092  -0.00072   0.00013  -0.00025  -0.00059
4 O 4dxz        -0.00170   0.00111  -0.00010  -0.00010   0.00030
4 O 4dx2-y2     -0.00069  -0.00084   0.00164   0.00128   0.00038
4 O 4f-3         0.00007   0.00037  -0.00009  -0.00001   0.00014
4 O 4f-2        -0.00029   0.00016  -0.00008  -0.00010   0.00001
4 O 4f-1         0.00026  -0.00026   0.00009   0.00003  -0.00006
4 O 4f+0        -0.00031  -0.00000   0.00006   0.00003   0.00003
4 O 4f+1         0.00006   0.00011   0.00004   0.00009   0.00012
4 O 4f+2         0.00021  -0.00035   0.00016   0.00011  -0.00002
4 O 4f+3         0.00004   0.00025  -0.00027  -0.00016   0.00000
5 O 1s           0.00023  -0.00020   0.00009   0.00022  -0.00016
5 O 2s          -0.00090   0.00194  -0.00336  -0.00239  -0.00298
5 O 3s          -0.00034   0.00064  -0.00102  -0.00082  -0.00089
5 O 4s          -0.00358   0.00343  -0.00645  -0.00468  -0.00083
5 O 2px         -0.00380   0.00166  -0.00117  -0.00200  -0.00146
5 O 2py         -0.00386   0.00200   0.00323   0.00492   0.00622
5 O 2pz         -0.00259  -0.00268   0.00172   0.00048  -0.00263
5 O 3px         -0.00447   0.00186  -0.00134  -0.00274  -0.00204
5 O 3py         -0.00454   0.00209   0.00425   0.00625   0.00731
5 O 3pz         -0.00342  -0.00292   0.00188   0.00059  -0.00277
5 O 4px         -0.00546   0.00183  -0.00152  -0.00167  -0.00257
5 O 4py         -0.00532   0.00257   0.00317   0.00579   0.00689
5 O 4pz         -0.00404  -0.00351   0.00270   0.00151  -0.00364
5 O 3dxy        -0.00000  -0.00000   0.00003  -0.00006  -0.00007
5 O 3dyz        -0.00002   0.00006  -0.00003   0.00001  -0.00002
5 O 3dz^2       -0.00005   0.00001   0.00001  -0.00007  -0.00003
5 O 3dxz         0.00000   0.00004  -0.00007   0.00008   0.00008
5 O 3dx2-y2      0.00003  -0.00000   0.00003  -0.00010  -0.00006
5 O 4dxy         0.00016  -0.00054   0.00009   0.00042   0.00009
5 O 4dyz        -0.00011   0.00050  -0.00037  -0.00022  -0.00039
5 O 4dz^2       -0.00003  -0.00027   0.00003  -0.00000  -0.00020
5 O 4dxz         0.00002   0.00014   0.00021  -0.00005   0.00012
5 O 4dx2-y2     -0.00040   0.00043  -0.00055  -0.00025  -0.00050
5 O 4f-3         0.00003  -0.00008   0.00008   0.00003   0.00003
5 O 4f-2         0.00001   0.00007  -0.00006  -0.00000  -0.00005
5 O 4f-1         0.00000  -0.00001   0.00000  -0.00000   0.00001
5 O 4f+0        -0.00006   0.00004  -0.00007  -0.00001  -0.00003
5 O 4f+1         0.00002  -0.00008   0.00004  -0.00003   0.00001
5 O 4f+2         0.00004  -0.00004   0.00001   0.00008   0.00001
5 O 4f+3        -0.00004   0.00010  -0.00008  -0.00006  -0.00005
6 C 1s          -0.00001   0.00045   0.00012  -0.00006  -0.00035
6 C 2s           0.00076   0.00801   0.00013   0.00151   0.00301
6 C 3s           0.00263   0.00171  -0.00185  -0.00491   0.00180
6 C 2px          0.00277   0.01511  -0.00472   0.00287   0.00742
6 C 2py          0.00651  -0.00998  -0.00157  -0.00186  -0.00487
6 C 2pz          0.00880   0.00229  -0.00277   0.00030   0.00055
6 C 3px          0.00045   0.00261  -0.00583  -0.00304  -0.00014
6 C 3py          0.00509  -0.00661   0.00324   0.00222  -0.00378
6 C 3pz          0.00351   0.00449  -0.00188  -0.00054   0.00349
6 C 3dxy         0.00066  -0.00019  -0.00135  -0.00118  -0.00112
6 C 3dyz        -0.00195   0.00248  -0.00031   0.00013   0.00065
[...]
Remaining 5 ENVs in rootspace 8 have combined average weight = 1.686818e-10
Leading 10 CSFs of 5 local primitive basis functions for fragment 0 in rootspace 8:
State 0/5           State 1/5           State 2/5           State 3/5           
2uuu2 : -8.13e-01   uu2u2 : -8.04e-01   u2uu2 : -7.30e-01   uuu22 :  7.99e-01   
uu2u2 :  4.48e-01   2uuu2 : -5.19e-01   uuu22 :  5.58e-01   u2uu2 :  5.42e-01   
u2uu2 :  3.69e-01   uuu22 :  2.19e-01   uu2u2 :  3.84e-01   2uuu2 :  2.50e-01   
uuu22 :  4.52e-02   u2uu2 : -1.93e-01   2uuu2 : -8.86e-02   uu2u2 : -7.39e-02   
u2u2u :  4.50e-06   uu22u :  2.71e-06   2uu2u :  8.45e-06   2u2uu :  8.77e-06   
2u2uu : -3.85e-06   2uu2u :  1.76e-06   u22uu :  6.80e-06   u2u2u : -7.83e-06   
uu22u :  2.66e-06   u2u2u :  1.75e-06   22uuu :  5.73e-06   uu22u : -4.30e-06   
u22uu : -2.60e-06   22uuu :  1.28e-06   uu22u :  3.37e-06   22uuu : -3.75e-06   
22uuu :  8.24e-07   u22uu :  9.47e-07   u2u2u : -6.25e-07   u22uu :  1.73e-06   
2uu2u :  2.73e-07   2u2uu : -5.11e-07   2u2uu :  2.09e-07   2uu2u :  8.32e-07   
State 4/5           
2u2uu : -6.73e-01   
22uuu : -6.03e-01   
2uu2u :  4.24e-01   
u2u2u : -6.32e-02   
u22uu : -2.00e-02   
uu22u : -8.23e-03   
2uuu2 :  2.36e-06   
uuu22 :  2.18e-06   
uu2u2 : -8.96e-07   
u2uu2 :  7.22e-07   
Leading 10 CSFs of 5 local primitive basis functions for fragment 1 in rootspace 8:
State 0/5           State 1/5           State 2/5           State 3/5           
u0uuu : -7.14e-01   uuu0u : -7.61e-01   uuuu0 : -6.98e-01   u0uuu : -6.74e-01   
uuu0u : -5.29e-01   0uuuu :  6.08e-01   uu0uu :  6.95e-01   0uuuu :  6.40e-01   
0uuuu : -4.51e-01   u0uuu :  1.63e-01   0uuuu : -1.34e-01   uuu0u :  3.67e-01   
uu0uu : -7.90e-02   uu0uu :  1.22e-01   uuu0u :  7.96e-02   uuuu0 : -2.79e-02   
uuuu0 :  2.27e-02   uuuu0 : -9.91e-02   u0uuu : -7.32e-02   uu0uu : -1.74e-02   
State 4/5           
uuuu0 :  7.08e-01   
uu0uu :  7.04e-01   
u0uuu : -5.30e-02   
0uuuu : -7.69e-03   
uuu0u :  3.38e-03   
Rootspace 11 with averaged weight 1.039e-03
 Frag    Nelec  2S+1   Ir     <n>  Max(weight)   Entropy
    0    4a+3b     4    A   0.987       0.5409  0.787664
    1    2a+2b     5    A   1.866       0.6865  0.787664
Wave function(s) in rootspace 11 in local primitive basis:
 Fac:  4.059e-02  3.805e-02  2.182e-02  4.027e-02  2.001e-10
  02: -7.072e-01 -7.070e-01  7.065e-01  7.059e-01 -7.063e-01
  31: -3.994e-01 -3.998e-01  4.003e-01  4.011e-01 -4.005e-01
  12: -3.030e-01 -3.029e-01  3.028e-01  3.026e-01 -3.027e-01
  32:  3.027e-01  3.025e-01 -3.022e-01 -3.017e-01  3.020e-01
  13: -2.308e-01 -2.311e-01  2.315e-01  2.322e-01 -2.317e-01
  10: -1.430e-01 -1.432e-01  1.435e-01  1.439e-01 -1.436e-01
  03:  1.313e-01  1.314e-01 -1.316e-01 -1.319e-01  1.317e-01
  00:  1.125e-01  1.126e-01 -1.126e-01 -1.127e-01  1.127e-01
  04:  1.061e-01  1.061e-01 -1.060e-01 -1.060e-01  1.060e-01
  14:  1.041e-01  1.042e-01 -1.043e-01 -1.044e-01  1.043e-01
  11: -9.873e-02 -9.888e-02  9.913e-02  9.948e-02 -9.923e-02
  21:  9.792e-02  9.801e-02 -9.816e-02 -9.838e-02  9.822e-02
  22: -6.535e-02 -6.531e-02  6.524e-02  6.515e-02 -6.523e-02
  23:  5.588e-02  5.588e-02 -5.588e-02 -5.587e-02  5.587e-02
  30: -5.531e-02 -5.531e-02  5.532e-02  5.533e-02 -5.533e-02
  34:  2.184e-02  2.193e-02 -2.207e-02 -2.227e-02  2.220e-02
  01: -2.025e-02 -2.045e-02  2.078e-02  2.124e-02 -2.090e-02
  20: -2.011e-02 -2.016e-02  2.024e-02  2.036e-02 -2.027e-02
  33:  6.508e-03  6.558e-03 -6.642e-03 -6.761e-03  6.670e-03
  24: -4.976e-03 -4.983e-03  4.994e-03  5.009e-03 -4.987e-03
Remaining 5 ENVs in rootspace 11 have combined average weight = 3.316506e-12
Leading 10 CSFs of 5 local primitive basis functions for fragment 0 in rootspace 11:
State 0/5           State 1/5           State 2/5           State 3/5           
2uuu2 : -7.46e-01   uu2u2 : -7.46e-01   u2uu2 : -7.28e-01   uuu22 :  7.97e-01   
uu2u2 :  5.39e-01   2uuu2 : -6.10e-01   uuu22 :  5.62e-01   u2uu2 :  5.44e-01   
u2uu2 :  3.91e-01   uuu22 :  2.23e-01   uu2u2 :  3.84e-01   2uuu2 :  2.53e-01   
uuu22 :  2.11e-02   u2uu2 : -1.48e-01   2uuu2 : -8.84e-02   uu2u2 : -7.64e-02   
u2u2u :  4.25e-06   uu22u :  3.00e-06   2uu2u :  8.46e-06   2u2uu :  8.77e-06   
2u2uu : -3.72e-06   u2u2u :  2.26e-06   u22uu :  6.82e-06   u2u2u : -7.83e-06   
u22uu : -2.69e-06   2uu2u :  1.77e-06   22uuu :  5.71e-06   uu22u : -4.31e-06   
uu22u :  2.32e-06   22uuu :  1.36e-06   uu22u :  3.36e-06   22uuu : -3.77e-06   
22uuu :  6.69e-07   2u2uu : -9.57e-07   u2u2u : -6.53e-07   u22uu :  1.71e-06   
2uu2u :  5.64e-08   u22uu :  6.30e-07   2u2uu :  2.48e-07   2uu2u :  8.13e-07   
State 4/5           
2u2uu : -6.72e-01   
22uuu : -6.04e-01   
2uu2u :  4.23e-01   
u2u2u : -6.40e-02   
u22uu : -1.83e-02   
uu22u : -7.86e-03   
2uuu2 :  2.33e-06   
uuu22 :  2.16e-06   
uu2u2 : -8.81e-07   
u2uu2 :  7.28e-07   
Leading 10 CSFs of 5 local primitive basis functions for fragment 1 in rootspace 11:
State 0/5           State 1/5           State 2/5           State 3/5           
u0uuu : -7.14e-01   uuu0u : -7.61e-01   uuuu0 : -6.99e-01   u0uuu : -6.75e-01   
uuu0u : -5.28e-01   0uuuu :  6.07e-01   uu0uu :  6.93e-01   0uuuu :  6.40e-01   
0uuuu : -4.52e-01   u0uuu :  1.62e-01   0uuuu : -1.35e-01   uuu0u :  3.67e-01   
uu0uu : -7.90e-02   uu0uu :  1.24e-01   uuu0u :  8.22e-02   uuuu0 : -2.43e-02   
uuuu0 :  2.28e-02   uuuu0 : -1.01e-01   u0uuu : -7.45e-02   uu0uu : -1.60e-02   
State 4/5           
uuuu0 :  7.07e-01   
uu0uu :  7.05e-01   
u0uuu : -5.07e-02   
0uuuu : -1.03e-02   
uuu0u :  2.39e-03   
Rootspace 6 with averaged weight 9.715e-04
 Frag    Nelec  2S+1   Ir     <n>  Max(weight)   Entropy
    0    1a+4b     4    A   1.202       0.3609  1.029330
    1    5a+1b     5    A   1.108       0.5579  1.030358
Wave function(s) in rootspace 6 in local primitive basis:
 Fac:  4.702e-02  4.410e-02  2.532e-02  7.805e-03  2.621e-12
  20: -5.563e-01  5.558e-01 -5.549e-01  5.537e-01  5.217e-01
  10: -4.670e-01  4.665e-01 -4.656e-01  4.644e-01  4.624e-01
  01: -3.770e-01  3.777e-01 -3.790e-01  3.808e-01  3.953e-01
  14:  3.581e-01 -3.581e-01  3.582e-01 -3.583e-01 -3.634e-01
  00: -1.896e-01  1.896e-01 -1.895e-01  1.894e-01  2.346e-01
  03: -2.031e-01  2.035e-01 -2.042e-01  2.052e-01  1.701e-01
  23:  1.557e-01 -1.558e-01  1.558e-01 -1.559e-01 -1.572e-01
  32: -1.529e-01  1.532e-01 -1.537e-01  1.543e-01  1.609e-01
  04:  1.314e-01 -1.315e-01  1.316e-01 -1.317e-01 -1.205e-01
  11:  1.207e-01 -1.209e-01  1.212e-01 -1.216e-01 -1.050e-01
  31:  1.170e-01 -1.171e-01  1.172e-01 -1.173e-01 -1.188e-01
  33: -1.095e-01  1.098e-01 -1.102e-01  1.107e-01  1.173e-01
  24: -8.245e-02  8.270e-02 -8.313e-02  8.372e-02  1.505e-01
  02:  7.354e-02 -7.373e-02  7.404e-02 -7.448e-02 -6.704e-02
  34:  6.676e-02 -6.677e-02  6.680e-02 -6.683e-02 -8.994e-02
  12:  4.021e-02 -4.023e-02  4.026e-02 -4.032e-02 -3.220e-02
  30: -2.842e-02  2.840e-02 -2.835e-02  2.829e-02  2.810e-02
  22: -1.935e-02  1.938e-02 -1.943e-02  1.951e-02  1.902e-02
  21: -1.797e-02  1.798e-02 -1.801e-02  1.805e-02  1.691e-02
  13:  2.473e-03 -2.431e-03  2.361e-03 -2.262e-03 -1.427e-03
  44: -6.318e-07  6.273e-07 -6.198e-07  6.094e-07 -2.804e-04
Remaining 4 ENVs in rootspace 6 have combined average weight = 2.630192e-09
Leading 10 CSFs of 5 local primitive basis functions for fragment 0 in rootspace 6:
State 0/5           State 1/5           State 2/5           State 3/5           
u0uu2 :  6.94e-01   uuu02 :  8.02e-01   0uuu2 : -9.05e-01   uu0u2 :  8.49e-01   
uu0u2 :  5.08e-01   u0uu2 :  4.72e-01   u0uu2 : -3.51e-01   u0uu2 : -4.15e-01   
uuu02 : -5.02e-01   0uuu2 : -3.57e-01   uuu02 : -2.09e-01   uuu02 :  2.49e-01   
0uuu2 : -8.83e-02   uu0u2 :  8.49e-02   uu0u2 :  1.16e-01   0uuu2 :  2.12e-01   
2uu0u : -4.68e-06   2u0uu : -4.93e-06   02uuu : -3.37e-06   0uu2u :  4.43e-06   
u20uu :  4.08e-06   u2u0u : -4.55e-06   u0u2u :  3.17e-06   u0u2u : -3.42e-06   
20uuu : -3.61e-06   0u2uu :  4.00e-06   uuudu :  3.10e-06   u2u0u : -3.41e-06   
0uu2u : -3.53e-06   u0u2u :  3.42e-06   uduuu : -2.98e-06   duuuu :  2.75e-06   
u02uu :  2.79e-06   20uuu : -3.17e-06   20uuu :  2.36e-06   uduuu : -2.59e-06   
uu02u : -2.71e-06   uu02u : -2.55e-06   u02uu : -2.21e-06   2uu0u : -1.79e-06   
State 4/5           
uuudu : -7.91e-01   
uuduu : -4.56e-01   
uduuu : -3.23e-01   
duuuu : -2.50e-01   
uu20u : -1.15e-03   
u0u2u :  1.13e-03   
uu02u :  9.65e-04   
u2u0u :  8.88e-04   
20uuu : -4.15e-04   
0u2uu :  3.99e-04   
Leading 10 CSFs of 5 local primitive basis functions for fragment 1 in rootspace 6:
State 0/5           State 1/5           State 2/5           State 3/5           
uuuu2 :  7.64e-01   u2uuu : -6.54e-01   2uuuu :  6.69e-01   u2uuu : -6.13e-01   
uu2uu : -5.85e-01   uu2uu :  5.30e-01   uuu2u : -6.10e-01   uu2uu : -5.62e-01   
uuu2u :  1.98e-01   2uuuu : -4.24e-01   u2uuu : -3.91e-01   uuuu2 : -5.36e-01   
u2uuu : -1.48e-01   uuuu2 :  3.11e-01   uu2uu :  1.40e-01   2uuuu : -1.40e-01   
2uuuu :  1.15e-01   uuu2u :  1.21e-01   uuuu2 :  8.86e-02   uuu2u :  3.28e-02   
State 4/5           
uuu2u : -7.57e-01   
2uuuu : -5.83e-01   
uu2uu : -2.05e-01   
uuuu2 :  1.55e-01   
u2uuu :  1.45e-01   
Rootspace 15 with averaged weight 8.368e-04
 Frag    Nelec  2S+1   Ir     <n>  Max(weight)   Entropy
    0    4a+1b     4    A   1.208       0.3651  1.016730
    1    2a+4b     5    A   1.101       0.5628  1.016730
Wave function(s) in rootspace 15 in local primitive basis:
 Fac:  2.351e-02  4.410e-02  3.798e-02  1.561e-02  2.898e-11
  20: -5.534e-01 -5.529e-01 -5.521e-01 -5.509e-01 -5.565e-01
  10: -4.627e-01 -4.622e-01 -4.614e-01 -4.601e-01 -4.659e-01
  01: -3.679e-01 -3.686e-01 -3.699e-01 -3.717e-01 -3.633e-01
  14:  3.608e-01  3.608e-01  3.608e-01  3.609e-01  3.605e-01
  00: -2.062e-01 -2.062e-01 -2.062e-01 -2.062e-01 -2.062e-01
  03: -2.027e-01 -2.031e-01 -2.038e-01 -2.048e-01 -2.002e-01
  23:  1.624e-01  1.624e-01  1.625e-01  1.626e-01  1.621e-01
  32: -1.521e-01 -1.524e-01 -1.529e-01 -1.535e-01 -1.504e-01
  11:  1.386e-01  1.387e-01  1.390e-01  1.393e-01  1.378e-01
  04:  1.279e-01  1.280e-01  1.280e-01  1.282e-01  1.276e-01
  31:  1.198e-01  1.199e-01  1.200e-01  1.201e-01  1.194e-01
  33: -1.095e-01 -1.098e-01 -1.102e-01 -1.107e-01 -1.080e-01
  24: -8.155e-02 -8.181e-02 -8.223e-02 -8.283e-02 -8.001e-02
  02:  7.085e-02  7.104e-02  7.134e-02  7.177e-02  6.973e-02
  34:  6.835e-02  6.837e-02  6.839e-02  6.843e-02  6.830e-02
  12:  4.148e-02  4.151e-02  4.155e-02  4.161e-02  4.133e-02
  22: -2.045e-02 -2.048e-02 -2.054e-02 -2.061e-02 -2.024e-02
  30: -2.014e-02 -2.012e-02 -2.009e-02 -2.004e-02 -2.027e-02
  21:  9.419e-03  9.378e-03  9.311e-03  9.215e-03  9.666e-03
  13:  8.866e-03  8.814e-03  8.728e-03  8.607e-03  9.179e-03
Remaining 5 ENVs in rootspace 15 have combined average weight = 9.714221e-10
Leading 10 CSFs of 5 local primitive basis functions for fragment 0 in rootspace 15:
State 0/5           State 1/5           State 2/5           State 3/5           
u0uu2 :  6.89e-01   uuu02 :  7.96e-01   0uuu2 : -9.03e-01   uu0u2 :  8.48e-01   
uuu02 : -5.10e-01   u0uu2 :  4.78e-01   u0uu2 : -3.56e-01   u0uu2 : -4.11e-01   
uu0u2 :  5.07e-01   0uuu2 : -3.60e-01   uuu02 : -2.08e-01   uuu02 :  2.52e-01   
0uuu2 : -8.54e-02   uu0u2 :  8.87e-02   uu0u2 :  1.22e-01   0uuu2 :  2.19e-01   
2uu0u : -4.70e-06   2u0uu : -4.93e-06   02uuu : -3.32e-06   0uu2u :  4.44e-06   
u20uu :  4.08e-06   u2u0u : -4.58e-06   u0u2u :  3.11e-06   u0u2u : -3.47e-06   
20uuu : -3.57e-06   0u2uu :  4.04e-06   uuudu :  3.10e-06   u2u0u : -3.42e-06   
0uu2u : -3.54e-06   u0u2u :  3.45e-06   uduuu : -3.02e-06   duuuu :  2.81e-06   
u02uu :  2.73e-06   20uuu : -3.19e-06   20uuu :  2.36e-06   uduuu : -2.52e-06   
uu02u : -2.66e-06   uu02u : -2.57e-06   u02uu : -2.19e-06   2uu0u : -1.78e-06   
State 4/5           
uuudu : -7.91e-01   
uuduu : -4.56e-01   
uduuu : -3.23e-01   
duuuu : -2.50e-01   
uu20u : -7.16e-04   
uu02u :  5.61e-04   
u0u2u :  5.48e-04   
u2u0u :  4.28e-04   
0u2uu :  2.97e-04   
20uuu : -2.65e-04   
Leading 10 CSFs of 5 local primitive basis functions for fragment 1 in rootspace 15:
State 0/5           State 1/5           State 2/5           State 3/5           
uuuu2 :  7.72e-01   u2uuu : -6.40e-01   2uuuu :  6.67e-01   u2uuu : -6.15e-01   
uu2uu : -5.66e-01   uu2uu :  5.62e-01   uuu2u : -6.09e-01   uu2uu : -5.51e-01   
uuu2u :  2.02e-01   2uuuu : -4.30e-01   u2uuu : -3.95e-01   uuuu2 : -5.44e-01   
u2uuu : -1.88e-01   uuuu2 :  2.76e-01   uu2uu :  1.43e-01   2uuuu : -1.46e-01   
2uuuu :  9.07e-02   uuu2u :  1.17e-01   uuuu2 :  8.96e-02   uuu2u :  3.00e-02   
State 4/5           
uuu2u : -7.58e-01   
2uuuu : -5.83e-01   
uu2uu : -2.01e-01   
uuuu2 :  1.55e-01   
u2uuu :  1.45e-01   
Rootspace 9 with averaged weight 7.449e-04
 Frag    Nelec  2S+1   Ir     <n>  Max(weight)   Entropy
    0    2a+3b     4    A   1.206       0.3660  1.020928
    1    4a+2b     5    A   1.115       0.5571  1.020931
Wave function(s) in rootspace 9 in local primitive basis:
 Fac:  4.072e-02  4.491e-10  3.655e-02  2.704e-02  4.975e-11
  20: -5.488e-01  5.482e-01  5.475e-01 -5.463e-01  5.454e-01
  10: -4.535e-01  4.529e-01  4.521e-01 -4.509e-01  4.493e-01
  14:  3.625e-01 -3.629e-01 -3.626e-01  3.627e-01 -3.633e-01
  01: -3.528e-01  3.532e-01  3.548e-01 -3.566e-01  3.568e-01
  00: -2.309e-01  2.316e-01  2.311e-01 -2.313e-01  2.310e-01
  03:  2.023e-01 -2.027e-01 -2.034e-01  2.044e-01 -2.056e-01
  11:  1.678e-01 -1.677e-01 -1.680e-01  1.683e-01 -1.685e-01
  23: -1.678e-01  1.677e-01  1.679e-01 -1.679e-01  1.683e-01
  32: -1.516e-01  1.517e-01  1.523e-01 -1.530e-01  1.540e-01
  04:  1.257e-01 -1.262e-01 -1.258e-01  1.259e-01 -1.262e-01
  31:  1.218e-01 -1.219e-01 -1.220e-01  1.222e-01 -1.231e-01
  33:  1.097e-01 -1.099e-01 -1.104e-01  1.109e-01 -1.121e-01
  24: -8.090e-02  8.114e-02  8.159e-02 -8.219e-02  8.377e-02
  02:  6.909e-02 -6.929e-02 -6.957e-02  6.999e-02 -7.033e-02
  34:  6.948e-02 -6.974e-02 -6.953e-02  6.957e-02 -6.904e-02
  21:  4.825e-02 -4.820e-02 -4.805e-02  4.787e-02 -4.769e-02
  12:  4.235e-02 -4.223e-02 -4.242e-02  4.249e-02 -4.261e-02
  22: -2.130e-02  2.136e-02  2.139e-02 -2.147e-02  2.165e-02
  13: -1.421e-02  1.404e-02  1.405e-02 -1.391e-02  1.376e-02
  30: -9.532e-03  9.820e-03  9.477e-03 -9.428e-03  9.348e-03
Remaining 5 ENVs in rootspace 9 have combined average weight = 1.400479e-09
Leading 10 CSFs of 5 local primitive basis functions for fragment 0 in rootspace 9:
State 0/5           State 1/5           State 2/5           State 3/5           
u0uu2 :  6.86e-01   uuu02 :  7.92e-01   0uuu2 : -9.00e-01   uu0u2 :  8.48e-01   
uuu02 : -5.15e-01   u0uu2 :  4.82e-01   u0uu2 : -3.60e-01   u0uu2 : -4.08e-01   
uu0u2 :  5.07e-01   0uuu2 : -3.63e-01   uuu02 : -2.08e-01   uuu02 :  2.54e-01   
0uuu2 : -8.36e-02   uu0u2 :  9.13e-02   uu0u2 :  1.28e-01   0uuu2 :  2.25e-01   
2uu0u : -4.73e-06   2u0uu : -4.92e-06   02uuu : -3.29e-06   0uu2u :  4.44e-06   
u20uu :  4.08e-06   u2u0u : -4.60e-06   uuudu :  3.10e-06   u0u2u : -3.51e-06   
0uu2u : -3.54e-06   0u2uu :  4.06e-06   u0u2u :  3.07e-06   u2u0u : -3.42e-06   
20uuu : -3.53e-06   u0u2u :  3.48e-06   uduuu : -3.05e-06   duuuu :  2.85e-06   
u02uu :  2.69e-06   20uuu : -3.19e-06   20uuu :  2.36e-06   uduuu : -2.46e-06   
uu02u : -2.62e-06   uu02u : -2.58e-06   u02uu : -2.18e-06   2uu0u : -1.75e-06   
State 4/5           
uuudu : -7.91e-01   
uuduu : -4.56e-01   
uduuu : -3.23e-01   
duuuu : -2.50e-01   
uu20u : -4.04e-04   
u02uu :  3.30e-04   
u20uu : -2.85e-04   
uu02u :  2.81e-04   
2uu0u : -1.90e-04   
02uuu :  1.82e-04   
Leading 10 CSFs of 5 local primitive basis functions for fragment 1 in rootspace 9:
State 0/5           State 1/5           State 2/5           State 3/5           
uuuu2 :  7.84e-01   u2uuu : -6.20e-01   2uuuu :  6.66e-01   u2uuu :  6.16e-01   
uu2uu : -5.31e-01   uu2uu :  6.03e-01   uuu2u : -6.07e-01   uuuu2 :  5.51e-01   
u2uuu : -2.39e-01   2uuuu : -4.36e-01   u2uuu : -3.98e-01   uu2uu :  5.42e-01   
uuu2u :  2.09e-01   uuuu2 :  2.24e-01   uu2uu :  1.45e-01   2uuuu :  1.50e-01   
2uuuu :  5.74e-02   uuu2u :  1.06e-01   uuuu2 :  9.03e-02   uuu2u : -2.78e-02   
State 4/5           
uuu2u : -7.59e-01   
2uuuu : -5.84e-01   
uu2uu : -1.98e-01   
uuuu2 :  1.54e-01   
u2uuu :  1.44e-01   
Rootspace 12 with averaged weight 6.990e-04
 Frag    Nelec  2S+1   Ir     <n>  Max(weight)   Entropy
    0    3a+2b     4    A   1.207       0.3674  1.019501
    1    3a+3b     5    A   1.121       0.5527  1.019501
Wave function(s) in rootspace 12 in local primitive basis:
 Fac:  3.325e-02  3.119e-02  1.790e-02  3.311e-02  1.643e-10
  20: -5.430e-01 -5.425e-01  5.417e-01  5.405e-01 -5.414e-01
  10: -4.426e-01 -4.421e-01  4.412e-01  4.400e-01 -4.409e-01
  14:  3.634e-01  3.634e-01 -3.635e-01 -3.635e-01  3.635e-01
  01:  3.370e-01  3.378e-01 -3.390e-01 -3.408e-01  3.394e-01
  00: -2.534e-01 -2.535e-01  2.537e-01  2.540e-01 -2.538e-01
  03: -2.019e-01 -2.024e-01  2.031e-01  2.041e-01 -2.033e-01
  11: -1.956e-01 -1.957e-01  1.958e-01  1.959e-01 -1.958e-01
  23:  1.708e-01  1.708e-01 -1.709e-01 -1.709e-01  1.709e-01
  32: -1.512e-01 -1.515e-01  1.520e-01  1.526e-01 -1.521e-01
  04:  1.246e-01  1.247e-01 -1.247e-01 -1.248e-01  1.248e-01
  31: -1.225e-01 -1.226e-01  1.227e-01  1.229e-01 -1.227e-01
  33: -1.099e-01 -1.101e-01  1.106e-01  1.111e-01 -1.107e-01
  21: -8.380e-02 -8.369e-02  8.351e-02  8.326e-02 -8.345e-02
  24: -8.062e-02 -8.088e-02  8.131e-02  8.191e-02 -8.147e-02
  34:  7.009e-02  7.011e-02 -7.014e-02 -7.018e-02  7.021e-02
  02:  6.822e-02  6.840e-02 -6.870e-02 -6.912e-02  6.880e-02
  12:  4.279e-02  4.282e-02 -4.286e-02 -4.293e-02  4.289e-02
  22: -2.181e-02 -2.185e-02  2.191e-02  2.200e-02 -2.193e-02
  13:  1.732e-02  1.726e-02 -1.716e-02 -1.701e-02  1.713e-02
  30: -1.946e-04 -1.731e-04  1.370e-04  8.553e-05 -1.312e-04
Remaining 5 ENVs in rootspace 12 have combined average weight = 9.562591e-10
Leading 10 CSFs of 5 local primitive basis functions for fragment 0 in rootspace 12:
State 0/5           State 1/5           State 2/5           State 3/5           
u0uu2 :  6.85e-01   uuu02 :  7.90e-01   0uuu2 : -8.99e-01   uu0u2 :  8.47e-01   
uuu02 : -5.17e-01   u0uu2 :  4.84e-01   u0uu2 : -3.62e-01   u0uu2 : -4.06e-01   
uu0u2 :  5.06e-01   0uuu2 : -3.64e-01   uuu02 : -2.08e-01   uuu02 :  2.55e-01   
0uuu2 : -8.28e-02   uu0u2 :  9.25e-02   uu0u2 :  1.31e-01   0uuu2 :  2.28e-01   
2uu0u : -4.75e-06   2u0uu : -4.92e-06   02uuu : -3.28e-06   0uu2u :  4.44e-06   
u20uu :  4.08e-06   u2u0u : -4.60e-06   uuudu :  3.10e-06   u0u2u : -3.53e-06   
0uu2u : -3.55e-06   0u2uu :  4.08e-06   uduuu : -3.07e-06   u2u0u : -3.42e-06   
20uuu : -3.50e-06   u0u2u :  3.49e-06   u0u2u :  3.04e-06   duuuu :  2.88e-06   
u02uu :  2.67e-06   20uuu : -3.19e-06   20uuu :  2.35e-06   uduuu : -2.43e-06   
uu02u : -2.60e-06   uu02u : -2.59e-06   u02uu : -2.18e-06   2uu0u : -1.74e-06   
State 4/5           
uuudu : -7.91e-01   
uuduu : -4.56e-01   
uduuu : -3.23e-01   
duuuu : -2.50e-01   
u02uu :  4.18e-04   
u20uu : -3.48e-04   
uu20u : -2.30e-04   
2uu0u : -2.10e-04   
0uu2u :  1.85e-04   
02uuu :  1.42e-04   
Leading 10 CSFs of 5 local primitive basis functions for fragment 1 in rootspace 12:
State 0/5           State 1/5           State 2/5           State 3/5           
uuuu2 :  7.93e-01   uu2uu : -6.39e-01   2uuuu :  6.65e-01   u2uuu : -6.16e-01   
uu2uu : -4.94e-01   u2uuu :  6.00e-01   uuu2u : -6.07e-01   uuuu2 : -5.55e-01   
u2uuu : -2.82e-01   2uuuu :  4.39e-01   u2uuu : -3.99e-01   uu2uu : -5.37e-01   
uuu2u :  2.15e-01   uuuu2 : -1.74e-01   uu2uu :  1.47e-01   2uuuu : -1.52e-01   
2uuuu :  2.73e-02   uuu2u : -9.37e-02   uuuu2 :  9.07e-02   uuu2u :  2.66e-02   
State 4/5           
uuu2u : -7.59e-01   
2uuuu : -5.84e-01   
uu2uu : -1.97e-01   
uuuu2 :  1.54e-01   
u2uuu :  1.44e-01   
Remaining 5 rootspaces have combined weight = 6.657001e-15

WARN: Not all rootspaces examined because their weights are too small. Metrics for omitted rootspaces are set to -1. Set print_all_but=-1 to ensure all rootspaces are examined.

