#INFO: **** input file is /project/lgagliardi/valayagarawal/lasscf/mof_nodes/Al_Fe_Fe/production/10_11/lassi_r2_n6.py ****
import numpy as np
import sys
from pyscf import gto, scf, tools,lib, mcscf
from pyscf.mcscf import avas,project_init_guess
from pyscf import mcscf
from mrh.my_pyscf.tools import molden
from mrh.my_pyscf.mcscf import lasscf_async as asyn
mol_name='Al_Fe_Fe.xyz' # Al-Fe-Fe MOF node
basis={'C': 'cc-pvdz','H': 'cc-pvdz','O': 'cc-pvtz','Al': 'cc-pvtz','Fe': 'cc-pvtz'}
r=2;n=6
output='r'+str(r)+'_n'+str(n)+'.log'
mol=gto.M(atom=mol_name,verbose=4,spin=9,charge=0,basis=basis, output=output) #spin = 2S
mf=scf.RHF(mol)
mf=mf.density_fit()
mf.max_cycle=1
mf.kernel()
mf.mo_coeff=np.load('hf.npy')

mo_guess=np.load('las_10_11.npy')
las=asyn.LASSCF(mf,(5,5),((1,5),(5,0)),spin_sub=(5,6),verbose=4) # spin is 2S+1
las.set_fragments_(([17],[19]),mo_guess)
las.mo_coeff=mo_guess
from mrh.my_pyscf.lassi import states
las=states.spin_shuffle(las)
for _ in range(r):
	las=states.all_single_excitations(las)
ncsf=las.get_ugg().ncsf_sub
lroots=np.minimum(n,ncsf)
las.lasci()
las.lasci(lroots=lroots)
e_roots, si= las.lassi(opt=1)
#INFO: ******************** input file end ********************


System: uname_result(system='Linux', node='midway3-0557.rcc.local', release='4.18.0-305.3.1.el8.x86_64', version='#1 SMP Tue Jun 1 16:14:33 UTC 2021', machine='x86_64')  Threads 16
Python 3.9.12 (main, Apr  5 2022, 06:56:58) 
[GCC 7.5.0]
numpy 1.25.0  scipy 1.7.3
Date: Wed Feb 21 09:29:21 2024
PySCF version 2.5.0
PySCF path  /project/lgagliardi/shared/Apps/pyscf
GIT ORIG_HEAD 0bc590ffddec98eec5d2513a3d85274b7a791bc6
GIT HEAD (branch master) 6f8ce439fbe0c26ec4d226e2225b28c7f668f922

[ENV] PYSCF_MAX_MEMORY 128000
[CONFIG] conf_file /home/valayagarawal/.pyscf_conf.py
[INPUT] verbose = 4
[INPUT] num. atoms = 28
[INPUT] num. electrons = 211
[INPUT] charge = 0
[INPUT] spin (= nelec alpha-beta = 2S) = 9
[INPUT] symmetry False subgroup None
[INPUT] Mole.unit = angstrom
[INPUT] Symbol           X                Y                Z      unit          X                Y                Z       unit  Magmom
[INPUT]  1 O     -2.220198244100   0.399190300300   1.694471698900 AA   -4.195566623589   0.754360339150   3.202087436747 Bohr   0.0
[INPUT]  2 O     -1.685553244600  -1.782306321700   1.431399507200 AA   -3.185234000666  -3.368070818094   2.704953043445 Bohr   0.0
[INPUT]  3 C     -2.268517865100  -0.831955037900   1.983951274000 AA   -4.286877473722  -1.572167169583   3.749124552342 Bohr   0.0
[INPUT]  4 H     -2.913342016700  -1.076728588500   2.843786805300 AA   -5.505418518751  -2.034722142755   5.373978218669 Bohr   0.0
[INPUT]  5 O      1.388288080900   2.079556156200  -1.347085675300 AA    2.623484254899   3.929791595871  -2.545622992642 Bohr   0.0
[INPUT]  6 O     -0.759908859500   2.580923634700  -0.849227704000 AA   -1.436019624086   4.877238818000  -1.604807777953 Bohr   0.0
[INPUT]  7 C      0.346567468600   2.753895325000  -1.438835699000 AA    0.654917599338   5.204107939970  -2.719005409357 Bohr   0.0
[INPUT]  8 H      0.372379614500   3.617699659800  -2.123091150300 AA    0.703695485776   6.836461557954  -4.012060811555 Bohr   0.0
[INPUT]  9 O      1.046960908100  -2.642534200000   0.961324672200 AA    1.978469379435  -4.993665912797   1.816640347245 Bohr   0.0
[INPUT] 10 O     -0.399190300300   2.220198244100   1.694471698900 AA   -0.754360339150   4.195566623589   3.202087436747 Bohr   0.0
[INPUT] 11 O      1.782306321700   1.685553244600   1.431399507200 AA    3.368070818094   3.185234000666   2.704953043445 Bohr   0.0
[INPUT] 12 C      0.831955037900   2.268517865100   1.983951274000 AA    1.572167169583   4.286877473722   3.749124552342 Bohr   0.0
[INPUT] 13 H      1.076728588500   2.913342016700   2.843786805300 AA    2.034722142755   5.505418518751   5.373978218669 Bohr   0.0
[INPUT] 14 O     -2.079556156200  -1.388288080900  -1.347085675300 AA   -3.929791595871  -2.623484254899  -2.545622992642 Bohr   0.0
[INPUT] 15 O     -2.580923634700   0.759908859500  -0.849227704000 AA   -4.877238818000   1.436019624086  -1.604807777953 Bohr   0.0
[INPUT] 16 C     -2.753895325000  -0.346567468600  -1.438835699000 AA   -5.204107939970  -0.654917599338  -2.719005409357 Bohr   0.0
[INPUT] 17 H     -3.617699659800  -0.372379614500  -2.123091150300 AA   -6.836461557954  -0.703695485776  -4.012060811555 Bohr   0.0
[INPUT] 18 Fe    -0.379874189300  -1.792603362900  -0.200337730300 AA   -0.717858179568  -3.387529405855  -0.378583442684 Bohr   0.0
[INPUT] 19 O      0.642223180300  -2.237796553000  -1.892914517600 AA    1.213625921614  -4.228822607666  -3.577090015477 Bohr   0.0
[INPUT] 20 Fe     1.792603362900   0.379874189300  -0.200337730300 AA    3.387529405855   0.717858179568  -0.378583442684 Bohr   0.0
[INPUT] 21 O      2.237796553000  -0.642223180300  -1.892914517600 AA    4.228822607666  -1.213625921614  -3.577090015477 Bohr   0.0
[INPUT] 22 O      2.642534200000  -1.046960908100   0.961324672200 AA    4.993665912797  -1.978469379435   1.816640347245 Bohr   0.0
[INPUT] 23 Al    -1.236271642100   1.236271642100   0.350650148000 AA   -2.336214819135   2.336214819135   0.662632745258 Bohr   0.0
[INPUT] 24 O     -0.044950195400   0.044950195400   0.012762141300 AA   -0.084943558552   0.084943558552   0.024116951820 Bohr   0.0
[INPUT] 25 C      1.645528685000  -1.645528685000  -2.357112465400 AA    3.109598544766  -3.109598544766  -4.454297004404 Bohr   0.0
[INPUT] 26 H      2.056906298400  -2.056906298400  -3.294571291600 AA    3.886989567869  -3.886989567869  -6.225837438979 Bohr   0.0
[INPUT] 27 C      2.160924281100  -2.160924281100   1.277584186800 AA    4.083555067202  -4.083555067202   2.414284214127 Bohr   0.0
[INPUT] 28 H      2.796080543300  -2.796080543300   1.918244302400 AA    5.283826449062  -5.283826449062   3.624956371543 Bohr   0.0

nuclear repulsion = 3455.30471244119
number of shells = 192
number of NR pGTOs = 1065
number of NR cGTOs = 674
basis = {'C': 'cc-pvdz', 'H': 'cc-pvdz', 'O': 'cc-pvtz', 'Al': 'cc-pvtz', 'Fe': 'cc-pvtz'}
ecp = {}
CPU time:         2.44


******** <class 'pyscf.df.df_jk.DFROHF'> ********
method = DFROHF
initial guess = minao
damping factor = 0
level_shift factor = 0
DIIS = <class 'pyscf.scf.diis.CDIIS'>
diis_start_cycle = 1
diis_space = 8
diis_damp = 0
SCF conv_tol = 1e-09
SCF conv_tol_grad = None
SCF max_cycles = 1
direct_scf = False
chkfile to save SCF result = /scratch/local/jobs/17682927/tmpmntpk1pg
max_memory 128000 MB (current use 76 MB)
num. doubly occ = 101  num. singly occ = 9
Set gradient conv threshold to 3.16228e-05
******** <class 'pyscf.df.df.DF'> ********
auxbasis = None
max_memory = 128000
Even tempered Gaussians are generated as DF auxbasis for  C H Fe Al O
init E= -3971.90238344316
  HOMO = 0.121056952198062  LUMO = 0.123678658553593
cycle= 1 E= -3943.04990514113  delta_E= 28.9  |g|= 9.05  |ddm|=   34
SCF not converged.
SCF energy = -3943.04990514113
Built 4 spin(local Sz)-shuffled LAS states from 1 reference LAS states
Built 13 singly-excited LAS states from 5 reference LAS states
Built 20 singly-excited LAS states from 18 reference LAS states
Entering product-state fixed-point CI iteration
Cycle 0: max grad = 2.613888e-03 ; sigma = 0.000000e+00
Cycle 1: max grad = 1.136868e-13 ; sigma = 2.656736e-08
Cycle 2: max grad = 1.136868e-13 ; sigma = 1.136868e-13
Product_state fixed-point CI iteration converged after 2 cycles
Entering product-state fixed-point CI iteration
Cycle 0: max grad = 2.600930e-03 ; sigma = 0.000000e+00
Cycle 1: max grad = 1.989520e-13 ; sigma = 2.627451e-08
Cycle 2: max grad = 1.989520e-13 ; sigma = 2.273737e-13
Product_state fixed-point CI iteration converged after 2 cycles
Entering product-state fixed-point CI iteration
Cycle 0: max grad = 2.595377e-03 ; sigma = 0.000000e+00
Cycle 1: max grad = 8.122181e-14 ; sigma = 2.615366e-08
Cycle 2: max grad = 8.122181e-14 ; sigma = 4.547474e-13
Product_state fixed-point CI iteration converged after 2 cycles
Entering product-state fixed-point CI iteration
Cycle 0: max grad = 2.597228e-03 ; sigma = 0.000000e+00
Cycle 1: max grad = 1.421085e-13 ; sigma = 2.619367e-08
Cycle 2: max grad = 1.421085e-13 ; sigma = 0.000000e+00
Product_state fixed-point CI iteration converged after 2 cycles
Entering product-state fixed-point CI iteration
Cycle 0: max grad = 2.606484e-03 ; sigma = 0.000000e+00
Cycle 1: max grad = 2.780464e-15 ; sigma = 2.639820e-08
Cycle 2: max grad = 2.780464e-15 ; sigma = 0.000000e+00
Product_state fixed-point CI iteration converged after 2 cycles
Entering product-state fixed-point CI iteration
Cycle 0: max grad = 2.082574e-02 ; sigma = 0.000000e+00
Cycle 1: max grad = 1.752441e-04 ; sigma = 1.511821e-02
Cycle 2: max grad = 8.314607e-06 ; sigma = 3.871799e-06
Cycle 3: max grad = 8.554995e-08 ; sigma = 1.608782e-09
Cycle 4: max grad = 5.028179e-09 ; sigma = 6.821210e-13
Product_state fixed-point CI iteration converged after 4 cycles
Entering product-state fixed-point CI iteration
Cycle 0: max grad = 1.092801e-02 ; sigma = 0.000000e+00
Cycle 1: max grad = 8.960273e-04 ; sigma = 2.684367e-03
Cycle 2: max grad = 3.426537e-05 ; sigma = 1.441322e-05
Cycle 3: max grad = 1.019853e-06 ; sigma = 5.256732e-08
Cycle 4: max grad = 5.580140e-08 ; sigma = 9.174528e-11
Product_state fixed-point CI iteration converged after 4 cycles
Entering product-state fixed-point CI iteration
Cycle 0: max grad = 4.702213e-03 ; sigma = 0.000000e+00
Cycle 1: max grad = 1.271057e-14 ; sigma = 9.487285e-03
Cycle 2: max grad = 1.271057e-14 ; sigma = 5.684342e-14
Product_state fixed-point CI iteration converged after 2 cycles
Entering product-state fixed-point CI iteration
Cycle 0: max grad = 2.085785e-02 ; sigma = 0.000000e+00
Cycle 1: max grad = 1.524495e-04 ; sigma = 1.523050e-02
Cycle 2: max grad = 8.946919e-06 ; sigma = 1.781592e-05
Cycle 3: max grad = 4.057190e-08 ; sigma = 1.813078e-09
Cycle 4: max grad = 1.351863e-09 ; sigma = 1.023182e-12
Product_state fixed-point CI iteration converged after 4 cycles
Entering product-state fixed-point CI iteration
Cycle 0: max grad = 1.126303e-02 ; sigma = 0.000000e+00
Cycle 1: max grad = 4.072857e-04 ; sigma = 5.171691e-03
Cycle 2: max grad = 6.887223e-06 ; sigma = 7.383263e-06
Cycle 3: max grad = 9.055688e-08 ; sigma = 2.224851e-09
Cycle 4: max grad = 2.613748e-09 ; sigma = 1.136868e-12
Product_state fixed-point CI iteration converged after 4 cycles
Entering product-state fixed-point CI iteration
Cycle 0: max grad = 4.625156e-03 ; sigma = 0.000000e+00
Cycle 1: max grad = 7.190187e-14 ; sigma = 8.123216e-03
Cycle 2: max grad = 7.190187e-14 ; sigma = 0.000000e+00
Product_state fixed-point CI iteration converged after 2 cycles
Entering product-state fixed-point CI iteration
Cycle 0: max grad = 2.086427e-02 ; sigma = 0.000000e+00
Cycle 1: max grad = 1.534412e-04 ; sigma = 1.518602e-02
Cycle 2: max grad = 1.061299e-05 ; sigma = 2.708721e-05
Cycle 3: max grad = 1.402401e-08 ; sigma = 2.640149e-09
Cycle 4: max grad = 7.857086e-10 ; sigma = 1.364242e-12
Product_state fixed-point CI iteration converged after 4 cycles
Entering product-state fixed-point CI iteration
Cycle 0: max grad = 1.133004e-02 ; sigma = 0.000000e+00
Cycle 1: max grad = 3.215621e-04 ; sigma = 5.649119e-03
Cycle 2: max grad = 6.380793e-06 ; sigma = 8.362927e-06
Cycle 3: max grad = 6.784534e-08 ; sigma = 1.948592e-10
Cycle 4: max grad = 1.186508e-09 ; sigma = 2.614797e-12
Product_state fixed-point CI iteration converged after 4 cycles
Entering product-state fixed-point CI iteration
Cycle 0: max grad = 4.609744e-03 ; sigma = 0.000000e+00
Cycle 1: max grad = 4.493867e-14 ; sigma = 7.855686e-03
Cycle 2: max grad = 4.493867e-14 ; sigma = 0.000000e+00
Product_state fixed-point CI iteration converged after 2 cycles
Entering product-state fixed-point CI iteration
Cycle 0: max grad = 2.084501e-02 ; sigma = 0.000000e+00
Cycle 1: max grad = 1.546878e-04 ; sigma = 1.521806e-02
Cycle 2: max grad = 9.390878e-06 ; sigma = 7.933866e-06
Cycle 3: max grad = 6.681692e-08 ; sigma = 1.952117e-09
Cycle 4: max grad = 3.111693e-09 ; sigma = 2.273737e-13
Product_state fixed-point CI iteration converged after 4 cycles
Entering product-state fixed-point CI iteration
Cycle 0: max grad = 1.112902e-02 ; sigma = 0.000000e+00
Cycle 1: max grad = 5.869092e-04 ; sigma = 4.186383e-03
Cycle 2: max grad = 1.463911e-05 ; sigma = 2.259470e-06
Cycle 3: max grad = 3.033465e-07 ; sigma = 9.987502e-09
Cycle 4: max grad = 1.143685e-08 ; sigma = 6.480150e-12
Product_state fixed-point CI iteration converged after 4 cycles
Entering product-state fixed-point CI iteration
Cycle 0: max grad = 4.655979e-03 ; sigma = 0.000000e+00
Cycle 1: max grad = 2.775558e-15 ; sigma = 8.664761e-03
Cycle 2: max grad = 4.662937e-15 ; sigma = 5.684342e-14
Product_state fixed-point CI iteration converged after 2 cycles
Entering product-state fixed-point CI iteration
Cycle 0: max grad = 4.763859e-03 ; sigma = 0.000000e+00
Cycle 1: max grad = 4.440892e-15 ; sigma = 1.059492e-02
Cycle 2: max grad = 4.440892e-15 ; sigma = 0.000000e+00
Product_state fixed-point CI iteration converged after 2 cycles
Entering product-state fixed-point CI iteration
Cycle 0: max grad = 5.142736e-02 ; sigma = 0.000000e+00
Cycle 1: max grad = 1.129622e-04 ; sigma = 3.090202e-02
Cycle 2: max grad = 3.713232e-06 ; sigma = 2.679245e-07
Cycle 3: max grad = 9.091914e-08 ; sigma = 2.534080e-10
Cycle 4: max grad = 3.841315e-09 ; sigma = 9.094947e-13
Product_state fixed-point CI iteration converged after 4 cycles
Entering product-state fixed-point CI iteration
Cycle 0: max grad = 3.555833e-02 ; sigma = 0.000000e+00
Cycle 1: max grad = 3.767608e-04 ; sigma = 1.459558e-02
Cycle 2: max grad = 8.141187e-06 ; sigma = 3.151705e-06
Cycle 3: max grad = 1.888227e-07 ; sigma = 1.085596e-09
Cycle 4: max grad = 4.056247e-09 ; sigma = 7.958079e-13
Product_state fixed-point CI iteration converged after 4 cycles
Entering product-state fixed-point CI iteration
Cycle 0: max grad = 3.555833e-02 ; sigma = 0.000000e+00
Cycle 1: max grad = 1.653444e-13 ; sigma = 4.440074e-02
Cycle 2: max grad = 2.005987e-13 ; sigma = 2.273737e-13
Product_state fixed-point CI iteration converged after 2 cycles
Entering product-state fixed-point CI iteration
Cycle 0: max grad = 2.656898e-02 ; sigma = 0.000000e+00
Cycle 1: max grad = 3.192986e-05 ; sigma = 2.940541e-02
Cycle 2: max grad = 1.902445e-11 ; sigma = 8.753887e-12
Product_state fixed-point CI iteration converged after 2 cycles
Entering product-state fixed-point CI iteration
Cycle 0: max grad = 4.376381e-02 ; sigma = 0.000000e+00
Cycle 1: max grad = 6.944395e-04 ; sigma = 2.700074e-02
Cycle 2: max grad = 4.789258e-05 ; sigma = 1.585923e-05
Cycle 3: max grad = 3.148958e-06 ; sigma = 1.440185e-09
Cycle 4: max grad = 2.065774e-07 ; sigma = 2.728484e-12
Product_state fixed-point CI iteration converged after 4 cycles
Entering product-state fixed-point CI iteration
Cycle 0: max grad = 2.318672e-02 ; sigma = 0.000000e+00
Cycle 1: max grad = 2.880487e-04 ; sigma = 6.867998e-03
Cycle 2: max grad = 3.511076e-06 ; sigma = 2.970197e-06
Cycle 3: max grad = 1.304550e-07 ; sigma = 1.933131e-09
Cycle 4: max grad = 2.071981e-09 ; sigma = 1.136868e-12
Product_state fixed-point CI iteration converged after 4 cycles
Entering product-state fixed-point CI iteration
Cycle 0: max grad = 5.140563e-02 ; sigma = 0.000000e+00
Cycle 1: max grad = 6.843956e-05 ; sigma = 3.093134e-02
Cycle 2: max grad = 9.193867e-07 ; sigma = 7.834797e-08
Cycle 3: max grad = 1.063445e-08 ; sigma = 2.194156e-11
Product_state fixed-point CI iteration converged after 3 cycles
Entering product-state fixed-point CI iteration
Cycle 0: max grad = 3.555833e-02 ; sigma = 0.000000e+00
Cycle 1: max grad = 3.695577e-04 ; sigma = 1.605338e-02
Cycle 2: max grad = 1.430375e-05 ; sigma = 2.266874e-05
Cycle 3: max grad = 2.446407e-07 ; sigma = 1.945637e-08
Cycle 4: max grad = 1.497874e-08 ; sigma = 1.648459e-11
Product_state fixed-point CI iteration converged after 4 cycles
Entering product-state fixed-point CI iteration
Cycle 0: max grad = 3.555833e-02 ; sigma = 0.000000e+00
Cycle 1: max grad = 2.550343e-13 ; sigma = 4.562101e-02
Cycle 2: max grad = 1.708261e-13 ; sigma = 1.136868e-13
Product_state fixed-point CI iteration converged after 2 cycles
Entering product-state fixed-point CI iteration
Cycle 0: max grad = 2.656898e-02 ; sigma = 0.000000e+00
Cycle 1: max grad = 2.176376e-05 ; sigma = 2.967549e-02
Cycle 2: max grad = 5.046014e-12 ; sigma = 2.842171e-12
Product_state fixed-point CI iteration converged after 2 cycles
Entering product-state fixed-point CI iteration
Cycle 0: max grad = 4.355731e-02 ; sigma = 0.000000e+00
Cycle 1: max grad = 2.913052e-04 ; sigma = 2.725575e-02
Cycle 2: max grad = 1.774865e-05 ; sigma = 8.507922e-06
Cycle 3: max grad = 5.062324e-07 ; sigma = 7.536300e-09
Cycle 4: max grad = 2.973552e-08 ; sigma = 1.421085e-11
Product_state fixed-point CI iteration converged after 4 cycles
Entering product-state fixed-point CI iteration
Cycle 0: max grad = 2.308347e-02 ; sigma = 0.000000e+00
Cycle 1: max grad = 1.779705e-04 ; sigma = 7.502363e-03
Cycle 2: max grad = 1.401723e-06 ; sigma = 5.954337e-07
Cycle 3: max grad = 4.250731e-08 ; sigma = 3.271907e-10
Cycle 4: max grad = 4.082157e-10 ; sigma = 1.136868e-13
Product_state fixed-point CI iteration converged after 4 cycles
Entering product-state fixed-point CI iteration
Cycle 0: max grad = 5.141287e-02 ; sigma = 0.000000e+00
Cycle 1: max grad = 8.378726e-05 ; sigma = 3.092170e-02
Cycle 2: max grad = 1.671846e-06 ; sigma = 1.524129e-07
Cycle 3: max grad = 2.668624e-08 ; sigma = 6.787104e-11
Product_state fixed-point CI iteration converged after 3 cycles
Entering product-state fixed-point CI iteration
Cycle 0: max grad = 3.555833e-02 ; sigma = 0.000000e+00
Cycle 1: max grad = 2.416661e-04 ; sigma = 1.556274e-02
Cycle 2: max grad = 1.005245e-05 ; sigma = 1.100901e-05
Cycle 3: max grad = 1.152539e-07 ; sigma = 6.416485e-09
Cycle 4: max grad = 7.900006e-09 ; sigma = 4.206413e-12
Product_state fixed-point CI iteration converged after 4 cycles
Entering product-state fixed-point CI iteration
Cycle 0: max grad = 3.555833e-02 ; sigma = 0.000000e+00
Cycle 1: max grad = 2.117568e-13 ; sigma = 4.521032e-02
Cycle 2: max grad = 1.705303e-13 ; sigma = 0.000000e+00
Product_state fixed-point CI iteration converged after 2 cycles
Entering product-state fixed-point CI iteration
Cycle 0: max grad = 2.656898e-02 ; sigma = 0.000000e+00
Cycle 1: max grad = 2.521689e-05 ; sigma = 2.958261e-02
Cycle 2: max grad = 8.835437e-12 ; sigma = 3.979039e-12
Product_state fixed-point CI iteration converged after 2 cycles
Entering product-state fixed-point CI iteration
Cycle 0: max grad = 4.362614e-02 ; sigma = 0.000000e+00
Cycle 1: max grad = 4.246956e-04 ; sigma = 2.717818e-02
Cycle 2: max grad = 2.768951e-05 ; sigma = 1.208332e-05
Cycle 3: max grad = 1.142435e-06 ; sigma = 1.251658e-08
Cycle 4: max grad = 7.143467e-08 ; sigma = 3.285550e-11
Product_state fixed-point CI iteration converged after 4 cycles
Entering product-state fixed-point CI iteration
Cycle 0: max grad = 2.311789e-02 ; sigma = 0.000000e+00
Cycle 1: max grad = 2.138311e-04 ; sigma = 7.292379e-03
Cycle 2: max grad = 1.989230e-06 ; sigma = 1.247735e-06
Cycle 3: max grad = 6.541578e-08 ; sigma = 6.573373e-10
Cycle 4: max grad = 7.613348e-10 ; sigma = 1.136868e-13
Product_state fixed-point CI iteration converged after 4 cycles
Entering product-state fixed-point CI iteration
Cycle 0: max grad = 2.656898e-02 ; sigma = 0.000000e+00
Cycle 1: max grad = 4.399173e-05 ; sigma = 2.916392e-02
Cycle 2: max grad = 4.149747e-11 ; sigma = 2.137313e-11
Product_state fixed-point CI iteration converged after 2 cycles
Entering product-state fixed-point CI iteration
Cycle 0: max grad = 2.328997e-02 ; sigma = 0.000000e+00
Cycle 1: max grad = 4.053133e-04 ; sigma = 6.223736e-03
Cycle 2: max grad = 6.742216e-06 ; sigma = 6.748022e-06
Cycle 3: max grad = 2.863993e-07 ; sigma = 6.421033e-09
Cycle 4: max grad = 6.481097e-09 ; sigma = 5.741185e-12
Product_state fixed-point CI iteration converged after 4 cycles
LASSCF state-average energy = -3971.78172024685
LASSCF state 0 energy = -3971.78172024685
LASSCF state 1 energy = -3971.78544204859
LASSCF state 2 energy = -3971.78703710648
LASSCF state 3 energy = -3971.78650542051
LASSCF state 4 energy = -3971.7838469907
LASSCF state 5 energy = -3970.70223739246
LASSCF state 6 energy = -3971.21910487136
LASSCF state 7 energy = -3713.27300419917
LASSCF state 8 energy = -3970.70405629642
LASSCF state 9 energy = -3971.22057596479
LASSCF state 10 energy = -3713.2740322833
LASSCF state 11 energy = -3970.704458501
LASSCF state 12 energy = -3971.22089075077
LASSCF state 13 energy = -3713.27424318433
LASSCF state 14 energy = -3970.70330901925
LASSCF state 15 energy = -3971.21997533099
LASSCF state 16 energy = -3713.27361696757
LASSCF state 17 energy = -3713.27219810874
LASSCF state 18 energy = -3968.32922189875
LASSCF state 19 energy = -3971.57255611491
LASSCF state 20 energy = -3971.69954574247
LASSCF state 21 energy = -3971.6583235955
LASSCF state 22 energy = -3969.36351704038
LASSCF state 23 energy = -3710.99758794905
LASSCF state 24 energy = -3968.32960527266
LASSCF state 25 energy = -3971.57529455087
LASSCF state 26 energy = -3971.70157163074
LASSCF state 27 energy = -3971.66025628802
LASSCF state 28 energy = -3969.36434555201
LASSCF state 29 energy = -3710.99832357843
LASSCF state 30 energy = -3968.32947678906
LASSCF state 31 energy = -3971.57436305258
LASSCF state 32 energy = -3971.70089240146
LASSCF state 33 energy = -3971.65960920436
LASSCF state 34 energy = -3969.36406134788
LASSCF state 35 energy = -3710.99807674165
LASSCF state 36 energy = -3971.65641949914
LASSCF state 37 energy = -3710.99686390826
Entering product-state fixed-point CI iteration
Cycle 0: max grad = 4.221177e+03 ; sigma = 0.000000e+00
Cycle 1: max grad = 5.055956e-13 ; sigma = 1.136868e-13
Product_state fixed-point CI iteration converged after 1 cycles
Entering product-state fixed-point CI iteration
Cycle 0: max grad = 4.220975e+03 ; sigma = 0.000000e+00
Cycle 1: max grad = 1.900702e-13 ; sigma = 2.273737e-13
Product_state fixed-point CI iteration converged after 1 cycles
Entering product-state fixed-point CI iteration
Cycle 0: max grad = 4.220791e+03 ; sigma = 0.000000e+00
Cycle 1: max grad = 4.989339e-13 ; sigma = 4.547474e-13
Product_state fixed-point CI iteration converged after 1 cycles
Entering product-state fixed-point CI iteration
Cycle 0: max grad = 4.220864e+03 ; sigma = 0.000000e+00
Cycle 1: max grad = 2.078338e-13 ; sigma = 0.000000e+00
Product_state fixed-point CI iteration converged after 1 cycles
Entering product-state fixed-point CI iteration
Cycle 0: max grad = 4.221086e+03 ; sigma = 0.000000e+00
Cycle 1: max grad = 2.646772e-13 ; sigma = 0.000000e+00
Product_state fixed-point CI iteration converged after 1 cycles
Entering product-state fixed-point CI iteration
Cycle 0: max grad = 1.139154e+04 ; sigma = 0.000000e+00
Cycle 1: max grad = 5.542824e-11 ; sigma = 7.958079e-13
Product_state fixed-point CI iteration converged after 1 cycles
Entering product-state fixed-point CI iteration
Cycle 0: max grad = 6.016425e+03 ; sigma = 0.000000e+00
Cycle 1: max grad = 1.636388e-09 ; sigma = 2.728484e-12
Product_state fixed-point CI iteration converged after 1 cycles
Entering product-state fixed-point CI iteration
Cycle 0: max grad = 1.256595e+02 ; sigma = 0.000000e+00
Cycle 1: max grad = 1.271057e-14 ; sigma = 5.684342e-14
Product_state fixed-point CI iteration converged after 1 cycles
Entering product-state fixed-point CI iteration
Cycle 0: max grad = 9.624634e+03 ; sigma = 0.000000e+00
Cycle 1: max grad = 7.656004e-12 ; sigma = 1.250555e-12
Product_state fixed-point CI iteration converged after 1 cycles
Entering product-state fixed-point CI iteration
Cycle 0: max grad = 6.169005e+03 ; sigma = 0.000000e+00
Cycle 1: max grad = 4.234415e-11 ; sigma = 2.046363e-12
Product_state fixed-point CI iteration converged after 1 cycles
Entering product-state fixed-point CI iteration
Cycle 0: max grad = 1.223856e+02 ; sigma = 0.000000e+00
Cycle 1: max grad = 6.740800e-14 ; sigma = 0.000000e+00
Product_state fixed-point CI iteration converged after 1 cycles
Entering product-state fixed-point CI iteration
Cycle 0: max grad = 8.433412e+03 ; sigma = 0.000000e+00
Cycle 1: max grad = 2.480133e-12 ; sigma = 9.094947e-13
Product_state fixed-point CI iteration converged after 1 cycles
Entering product-state fixed-point CI iteration
Cycle 0: max grad = 6.197626e+03 ; sigma = 0.000000e+00
Cycle 1: max grad = 3.496613e-11 ; sigma = 2.273737e-12
Product_state fixed-point CI iteration converged after 1 cycles
Entering product-state fixed-point CI iteration
Cycle 0: max grad = 1.208087e+02 ; sigma = 0.000000e+00
Cycle 1: max grad = 4.493867e-14 ; sigma = 0.000000e+00
Product_state fixed-point CI iteration converged after 1 cycles
Entering product-state fixed-point CI iteration
Cycle 0: max grad = 1.073487e+04 ; sigma = 0.000000e+00
Cycle 1: max grad = 2.472266e-11 ; sigma = 1.364242e-12
Product_state fixed-point CI iteration converged after 1 cycles
Entering product-state fixed-point CI iteration
Cycle 0: max grad = 6.109519e+03 ; sigma = 0.000000e+00
Cycle 1: max grad = 2.423978e-10 ; sigma = 2.614797e-12
Product_state fixed-point CI iteration converged after 1 cycles
Entering product-state fixed-point CI iteration
Cycle 0: max grad = 1.243551e+02 ; sigma = 0.000000e+00
Cycle 1: max grad = 1.271056e-14 ; sigma = 5.684342e-14
Product_state fixed-point CI iteration converged after 1 cycles
Entering product-state fixed-point CI iteration
Cycle 0: max grad = 1.259835e+02 ; sigma = 0.000000e+00
Cycle 1: max grad = 3.885781e-15 ; sigma = 0.000000e+00
Product_state fixed-point CI iteration converged after 1 cycles
Entering product-state fixed-point CI iteration
Cycle 0: max grad = 1.055810e+04 ; sigma = 0.000000e+00
Cycle 1: max grad = 1.280598e-10 ; sigma = 1.136868e-13
Product_state fixed-point CI iteration converged after 1 cycles
Entering product-state fixed-point CI iteration
Cycle 0: max grad = 7.294314e+03 ; sigma = 0.000000e+00
Cycle 1: max grad = 1.444884e-10 ; sigma = 3.410605e-13
Product_state fixed-point CI iteration converged after 1 cycles
Entering product-state fixed-point CI iteration
Cycle 0: max grad = 7.416366e+03 ; sigma = 0.000000e+00
Cycle 1: max grad = 1.307399e-11 ; sigma = 1.136868e-13
Product_state fixed-point CI iteration converged after 1 cycles
Entering product-state fixed-point CI iteration
Cycle 0: max grad = 4.209463e+03 ; sigma = 0.000000e+00
Cycle 1: max grad = 4.725109e-13 ; sigma = 3.410605e-13
Product_state fixed-point CI iteration converged after 1 cycles
Entering product-state fixed-point CI iteration
Cycle 0: max grad = 3.813494e+03 ; sigma = 0.000000e+00
Cycle 1: max grad = 1.722803e-08 ; sigma = 1.023182e-12
Product_state fixed-point CI iteration converged after 1 cycles
Entering product-state fixed-point CI iteration
Cycle 0: max grad = 2.619677e+03 ; sigma = 0.000000e+00
Cycle 1: max grad = 1.008651e-10 ; sigma = 5.684342e-14
Product_state fixed-point CI iteration converged after 1 cycles
Entering product-state fixed-point CI iteration
Cycle 0: max grad = 1.052781e+04 ; sigma = 0.000000e+00
Cycle 1: max grad = 2.417161e-10 ; sigma = 1.136868e-13
Product_state fixed-point CI iteration converged after 1 cycles
Entering product-state fixed-point CI iteration
Cycle 0: max grad = 1.917325e+03 ; sigma = 0.000000e+00
Cycle 1: max grad = 4.658306e-10 ; sigma = 3.410605e-13
Product_state fixed-point CI iteration converged after 1 cycles
Entering product-state fixed-point CI iteration
Cycle 0: max grad = 1.923612e+03 ; sigma = 0.000000e+00
Cycle 1: max grad = 1.596721e-11 ; sigma = 2.273737e-13
Product_state fixed-point CI iteration converged after 1 cycles
Entering product-state fixed-point CI iteration
Cycle 0: max grad = 4.204911e+03 ; sigma = 0.000000e+00
Cycle 1: max grad = 5.482472e-13 ; sigma = 0.000000e+00
Product_state fixed-point CI iteration converged after 1 cycles
Entering product-state fixed-point CI iteration
Cycle 0: max grad = 1.174830e+04 ; sigma = 0.000000e+00
Cycle 1: max grad = 1.065359e-09 ; sigma = 1.477929e-12
Product_state fixed-point CI iteration converged after 1 cycles
Entering product-state fixed-point CI iteration
Cycle 0: max grad = 2.628110e+03 ; sigma = 0.000000e+00
Cycle 1: max grad = 1.567518e-11 ; sigma = 1.705303e-13
Product_state fixed-point CI iteration converged after 1 cycles
Entering product-state fixed-point CI iteration
Cycle 0: max grad = 1.053839e+04 ; sigma = 0.000000e+00
Cycle 1: max grad = 8.646518e-10 ; sigma = 2.273737e-13
Product_state fixed-point CI iteration converged after 1 cycles
Entering product-state fixed-point CI iteration
Cycle 0: max grad = 7.497526e+03 ; sigma = 0.000000e+00
Cycle 1: max grad = 2.222315e-10 ; sigma = 3.410605e-13
Product_state fixed-point CI iteration converged after 1 cycles
Entering product-state fixed-point CI iteration
Cycle 0: max grad = 7.538751e+03 ; sigma = 0.000000e+00
Cycle 1: max grad = 3.524292e-12 ; sigma = 1.136868e-13
Product_state fixed-point CI iteration converged after 1 cycles
Entering product-state fixed-point CI iteration
Cycle 0: max grad = 4.205373e+03 ; sigma = 0.000000e+00
Cycle 1: max grad = 3.099743e-13 ; sigma = 1.136868e-13
Product_state fixed-point CI iteration converged after 1 cycles
Entering product-state fixed-point CI iteration
Cycle 0: max grad = 3.815691e+03 ; sigma = 0.000000e+00
Cycle 1: max grad = 3.726910e-09 ; sigma = 1.023182e-12
Product_state fixed-point CI iteration converged after 1 cycles
Entering product-state fixed-point CI iteration
Cycle 0: max grad = 2.625297e+03 ; sigma = 0.000000e+00
Cycle 1: max grad = 3.210326e-11 ; sigma = 3.410605e-13
Product_state fixed-point CI iteration converged after 1 cycles
Entering product-state fixed-point CI iteration
Cycle 0: max grad = 4.219125e+03 ; sigma = 0.000000e+00
Cycle 1: max grad = 3.067293e-13 ; sigma = 2.273737e-13
Product_state fixed-point CI iteration converged after 1 cycles
Entering product-state fixed-point CI iteration
Cycle 0: max grad = 2.611206e+03 ; sigma = 0.000000e+00
Cycle 1: max grad = 3.700433e-10 ; sigma = 1.705303e-13
Product_state fixed-point CI iteration converged after 1 cycles
LASSCF state-average energy = -3971.78172024685
LASSCF state 0 energy = -3971.78172024685
LASSCF state 1 energy = -3971.78544204859
LASSCF state 2 energy = -3971.78703710648
LASSCF state 3 energy = -3971.78650542051
LASSCF state 4 energy = -3971.7838469907
LASSCF state 5 energy = -3970.70223739246
LASSCF state 6 energy = -3971.21910487136
LASSCF state 7 energy = -3713.27300419917
LASSCF state 8 energy = -3970.70405629642
LASSCF state 9 energy = -3971.22057596479
LASSCF state 10 energy = -3713.2740322833
LASSCF state 11 energy = -3970.704458501
LASSCF state 12 energy = -3971.22089075077
LASSCF state 13 energy = -3713.27424318433
LASSCF state 14 energy = -3970.70330901925
LASSCF state 15 energy = -3971.21997533099
LASSCF state 16 energy = -3713.27361696756
LASSCF state 17 energy = -3713.27219810874
LASSCF state 18 energy = -3968.32922189875
LASSCF state 19 energy = -3971.57255611491
LASSCF state 20 energy = -3971.69954574247
LASSCF state 21 energy = -3971.6583235955
LASSCF state 22 energy = -3969.36351704038
LASSCF state 23 energy = -3710.99758794905
LASSCF state 24 energy = -3968.32960527266
LASSCF state 25 energy = -3971.57529455087
LASSCF state 26 energy = -3971.70157163074
LASSCF state 27 energy = -3971.66025628802
LASSCF state 28 energy = -3969.36434555201
LASSCF state 29 energy = -3710.99832357843
LASSCF state 30 energy = -3968.32947678906
LASSCF state 31 energy = -3971.57436305258
LASSCF state 32 energy = -3971.70089240146
LASSCF state 33 energy = -3971.65960920436
LASSCF state 34 energy = -3969.36406134788
LASSCF state 35 energy = -3710.99807674165
LASSCF state 36 energy = -3971.65641949914
LASSCF state 37 energy = -3710.99686390826
LASSI op_o0 memory check: 26.613504 MB needed of 120123.736064 MB available (128000 MB max)
Symmetry analysis of 38 LAS rootspaces:
 ix            Energy  <S**2>  Neleca  Nelecb  Nelec   Wfnsym
  0  -3971.7817202469   4.750       6       5      11       A
  1  -3971.7854420486  11.750       6       5      11       A
  2  -3971.7870371065  14.750       6       5      11       A
  3  -3971.7865054205  13.750       6       5      11       A
  4  -3971.7838469907   8.750       6       5      11       A
  5  -3970.7022373925   3.750       6       5      11       A
  6  -3971.2191048714   3.750       6       5      11       A
  7  -3713.2730041992   8.750       6       5      11       A
  8  -3970.7040562964   8.750       6       5      11       A
  9  -3971.2205759648   8.750       6       5      11       A
 10  -3713.2740322833  13.750       6       5      11       A
 11  -3970.7044585010   9.750       6       5      11       A
 12  -3971.2208907508   9.750       6       5      11       A
 13  -3713.2742431843  14.750       6       5      11       A
 14  -3970.7033090193   6.750       6       5      11       A
 15  -3971.2199753310   6.750       6       5      11       A
 16  -3713.2736169676  11.750       6       5      11       A
 17  -3713.2721981087   4.750       6       5      11       A
 18  -3968.3292218987   2.750       6       5      11       A
 19  -3971.5725561149   2.750       6       5      11       A
 20  -3971.6995457425   7.750       6       5      11       A
 21  -3971.6583235955   6.750       6       5      11       A
 22  -3969.3635170404   2.750       6       5      11       A
 23  -3710.9975879491   6.750       6       5      11       A
 24  -3968.3296052727   5.750       6       5      11       A
 25  -3971.5752945509   5.750       6       5      11       A
 26  -3971.7015716307  10.750       6       5      11       A
 27  -3971.6602562880   9.750       6       5      11       A
 28  -3969.3643455520   5.750       6       5      11       A
 29  -3710.9983235784   9.750       6       5      11       A
 30  -3968.3294767891   4.750       6       5      11       A
 31  -3971.5743630526   4.750       6       5      11       A
 32  -3971.7008924015   9.750       6       5      11       A
 33  -3971.6596092044   8.750       6       5      11       A
 34  -3969.3640613479   4.750       6       5      11       A
 35  -3710.9980767416   8.750       6       5      11       A
 36  -3971.6564194991   3.750       6       5      11       A
 37  -3710.9968639083   3.750       6       5      11       A
Build + diag H matrix LASSI symmetry block 0
['neleca', 'nelecb', 'irrep'] = (6, 5, 0)
(38 rootspaces; 872 states)
LASSI eigenvalues (872 total):
 ix            Energy  <S**2>  Neleca  Nelecb  Wfnsym
  0  -3971.7927295023   0.750       6       5       A
  1  -3971.7926893613   3.750       6       5       A
  2  -3971.7926181592   8.750       6       5       A
  3  -3971.7925095206  15.750       6       5       A
  4  -3971.7923539661  24.750       6       5       A
  5  -3971.7065424029  15.750       6       5       A
  6  -3971.7010903170   8.750       6       5       A
  7  -3971.6972416510   3.750       6       5       A
  8  -3971.6897896469  15.750       6       5       A
  9  -3971.6895842498  15.749       6       5       A
 10  -3971.6887465111  15.750       6       5       A
 11  -3971.6856206128   8.750       6       5       A
 12  -3971.6848200576   8.750       6       5       A
 13  -3971.6837178439   8.750       6       5       A
 14  -3971.6826645729   3.750       6       5       A
 15  -3971.6817817638   3.750       6       5       A
 16  -3971.6797933507   3.751       6       5       A
 17  -3971.6654729550  15.750       6       5       A
 18  -3971.6654086536  15.749       6       5       A
 19  -3971.6648978750  15.750       6       5       A
 20  -3971.6617817293   8.750       6       5       A
 21  -3971.6616935891   8.750       6       5       A
 22  -3971.6601582561   8.750       6       5       A
 23  -3971.6599749589  15.750       6       5       A
 24  -3971.6591292840  15.750       6       5       A
 25  -3971.6590049224   3.750       6       5       A
 26  -3971.6588983199   3.751       6       5       A
 27  -3971.6567173080   3.750       6       5       A
 28  -3971.6550796842   8.749       6       5       A
 29  -3971.6547840242   8.748       6       5       A
 30  -3971.6546241216   0.752       6       5       A
 31  -3971.6516688652   3.750       6       5       A
 32  -3971.6515024872   3.750       6       5       A
 33  -3971.6497416654   0.750       6       5       A
 34  -3971.6493550112   0.751       6       5       A
 35  -3971.6418194322  15.748       6       5       A
 36  -3971.6401882914  15.746       6       5       A
 37  -3971.6379442777  15.702       6       5       A
 38  -3971.6373585568   8.748       6       5       A
 39  -3971.6360453076   8.744       6       5       A
 40  -3971.6341090634   3.750       6       5       A
 41  -3971.6332916274   8.673       6       5       A
 42  -3971.6330777780   3.750       6       5       A
 43  -3971.6321041894   0.756       6       5       A
 44  -3971.6312546032   0.766       6       5       A
 45  -3971.6301337065   3.745       6       5       A
 46  -3971.6280694209   0.872       6       5       A
 47  -3971.5782176268   8.750       6       5       A
 48  -3971.5735092631   3.750       6       5       A
 49  -3971.5718687993   8.750       6       5       A
 50  -3971.5708976852   0.750       6       5       A
 51  -3971.5699861471   8.750       6       5       A
 52  -3971.5679633210   3.750       6       5       A
 53  -3971.5674058775   3.750       6       5       A
 54  -3971.5660223118   0.750       6       5       A
 55  -3971.5657617201   0.750       6       5       A
 56  -3971.5609196222   8.749       6       5       A
 57  -3971.5607507457   8.750       6       5       A
 58  -3971.5597779235   8.750       6       5       A
 59  -3971.5581395688   3.750       6       5       A
 60  -3971.5572009508   3.750       6       5       A
 61  -3971.5565112089   0.751       6       5       A
 62  -3971.5559673173   3.749       6       5       A
 63  -3971.5554165252   8.750       6       5       A
 64  -3971.5552902960   0.751       6       5       A
 65  -3971.5550299256   8.749       6       5       A
 66  -3971.5542447060   8.749       6       5       A
 67  -3971.5538468743   8.572       6       5       A
 68  -3971.5538394710   0.929       6       5       A
 69  -3971.5533359748   8.749       6       5       A
 70  -3971.5528869241   8.748       6       5       A
 71  -3971.5527599077   3.750       6       5       A
 72  -3971.5522000302   8.749       6       5       A
 73  -3971.5521459377   3.750       6       5       A
 74  -3971.5517805226   3.750       6       5       A
 75  -3971.5515167768   0.751       6       5       A
 76  -3971.5512274781   3.751       6       5       A
 77  -3971.5511583635   8.742       6       5       A
 78  -3971.5509284717   0.751       6       5       A
 79  -3971.5504897121   3.748       6       5       A
 80  -3971.5503047798   0.753       6       5       A
 81  -3971.5501707544   3.746       6       5       A
 82  -3971.5501390650   0.756       6       5       A
 83  -3971.5498611809   3.752       6       5       A
 84  -3971.5496171845   8.707       6       5       A
 85  -3971.5488783290   3.744       6       5       A
 86  -3971.5486310323   0.756       6       5       A
 87  -3971.5485076497   0.753       6       5       A
 88  -3971.5481520397   0.753       6       5       A
 89  -3971.5473432425   0.756       6       5       A
 90  -3971.5462605763   3.722       6       5       A
 91  -3971.5443788559   0.814       6       5       A
 92  -3971.5371846488   8.747       6       5       A
 93  -3971.5365932750   8.746       6       5       A
 94  -3971.5358015321   8.748       6       5       A
 95  -3971.5354054599   8.746       6       5       A
 96  -3971.5348733698   8.747       6       5       A
 97  -3971.5346718882   3.750       6       5       A
 98  -3971.5345652252   8.746       6       5       A
 99  -3971.5343262541   8.747       6       5       A
Remaining 772 eigenvalues truncated; increase verbosity to print them all
