#INFO: **** input file is /project/lgagliardi/valayagarawal/lasscf/mof_nodes/Al_Fe_Fe/production/10_11/lassi_r3_n6.py ****
import numpy as np
import sys
from pyscf import gto, scf, tools,lib, mcscf
from pyscf.mcscf import avas,project_init_guess
from pyscf import mcscf
from mrh.my_pyscf.tools import molden
from mrh.my_pyscf.mcscf import lasscf_async as asyn
mol_name='Al_Fe_Fe.xyz' # Al-Fe-Fe MOF node
basis={'C': 'cc-pvdz','H': 'cc-pvdz','O': 'cc-pvtz','Al': 'cc-pvtz','Fe': 'cc-pvtz'}
r=3;n=6
output='r'+str(r)+'_n'+str(n)+'.log'
mol=gto.M(atom=mol_name,verbose=4,spin=9,charge=0,basis=basis, output=output) #spin = 2S
mf=scf.RHF(mol)
mf=mf.density_fit()
mf.max_cycle=1
mf.kernel()
mf.mo_coeff=np.load('hf.npy')

mo_guess=np.load('las_10_11.npy')
las=asyn.LASSCF(mf,(5,5),((1,5),(5,0)),spin_sub=(5,6),verbose=4) # spin is 2S+1
las.set_fragments_(([17],[19]),mo_guess)
las.mo_coeff=mo_guess
from mrh.my_pyscf.lassi import states
las=states.spin_shuffle(las)
for _ in range(r):
	las=states.all_single_excitations(las)
ncsf=las.get_ugg().ncsf_sub
lroots=np.minimum(n,ncsf)
las.lasci()
las.lasci(lroots=lroots)
e_roots, si= las.lassi(opt=1)
#INFO: ******************** input file end ********************


System: uname_result(system='Linux', node='midway3-0553.rcc.local', release='4.18.0-305.3.1.el8.x86_64', version='#1 SMP Tue Jun 1 16:14:33 UTC 2021', machine='x86_64')  Threads 16
Python 3.9.12 (main, Apr  5 2022, 06:56:58) 
[GCC 7.5.0]
numpy 1.25.0  scipy 1.7.3
Date: Wed Feb 21 09:32:24 2024
PySCF version 2.5.0
PySCF path  /project/lgagliardi/shared/Apps/pyscf
GIT ORIG_HEAD 0bc590ffddec98eec5d2513a3d85274b7a791bc6
GIT HEAD (branch master) 6f8ce439fbe0c26ec4d226e2225b28c7f668f922

[ENV] PYSCF_MAX_MEMORY 128000
[CONFIG] conf_file /home/valayagarawal/.pyscf_conf.py
[INPUT] verbose = 4
[INPUT] num. atoms = 28
[INPUT] num. electrons = 211
[INPUT] charge = 0
[INPUT] spin (= nelec alpha-beta = 2S) = 9
[INPUT] symmetry False subgroup None
[INPUT] Mole.unit = angstrom
[INPUT] Symbol           X                Y                Z      unit          X                Y                Z       unit  Magmom
[INPUT]  1 O     -2.220198244100   0.399190300300   1.694471698900 AA   -4.195566623589   0.754360339150   3.202087436747 Bohr   0.0
[INPUT]  2 O     -1.685553244600  -1.782306321700   1.431399507200 AA   -3.185234000666  -3.368070818094   2.704953043445 Bohr   0.0
[INPUT]  3 C     -2.268517865100  -0.831955037900   1.983951274000 AA   -4.286877473722  -1.572167169583   3.749124552342 Bohr   0.0
[INPUT]  4 H     -2.913342016700  -1.076728588500   2.843786805300 AA   -5.505418518751  -2.034722142755   5.373978218669 Bohr   0.0
[INPUT]  5 O      1.388288080900   2.079556156200  -1.347085675300 AA    2.623484254899   3.929791595871  -2.545622992642 Bohr   0.0
[INPUT]  6 O     -0.759908859500   2.580923634700  -0.849227704000 AA   -1.436019624086   4.877238818000  -1.604807777953 Bohr   0.0
[INPUT]  7 C      0.346567468600   2.753895325000  -1.438835699000 AA    0.654917599338   5.204107939970  -2.719005409357 Bohr   0.0
[INPUT]  8 H      0.372379614500   3.617699659800  -2.123091150300 AA    0.703695485776   6.836461557954  -4.012060811555 Bohr   0.0
[INPUT]  9 O      1.046960908100  -2.642534200000   0.961324672200 AA    1.978469379435  -4.993665912797   1.816640347245 Bohr   0.0
[INPUT] 10 O     -0.399190300300   2.220198244100   1.694471698900 AA   -0.754360339150   4.195566623589   3.202087436747 Bohr   0.0
[INPUT] 11 O      1.782306321700   1.685553244600   1.431399507200 AA    3.368070818094   3.185234000666   2.704953043445 Bohr   0.0
[INPUT] 12 C      0.831955037900   2.268517865100   1.983951274000 AA    1.572167169583   4.286877473722   3.749124552342 Bohr   0.0
[INPUT] 13 H      1.076728588500   2.913342016700   2.843786805300 AA    2.034722142755   5.505418518751   5.373978218669 Bohr   0.0
[INPUT] 14 O     -2.079556156200  -1.388288080900  -1.347085675300 AA   -3.929791595871  -2.623484254899  -2.545622992642 Bohr   0.0
[INPUT] 15 O     -2.580923634700   0.759908859500  -0.849227704000 AA   -4.877238818000   1.436019624086  -1.604807777953 Bohr   0.0
[INPUT] 16 C     -2.753895325000  -0.346567468600  -1.438835699000 AA   -5.204107939970  -0.654917599338  -2.719005409357 Bohr   0.0
[INPUT] 17 H     -3.617699659800  -0.372379614500  -2.123091150300 AA   -6.836461557954  -0.703695485776  -4.012060811555 Bohr   0.0
[INPUT] 18 Fe    -0.379874189300  -1.792603362900  -0.200337730300 AA   -0.717858179568  -3.387529405855  -0.378583442684 Bohr   0.0
[INPUT] 19 O      0.642223180300  -2.237796553000  -1.892914517600 AA    1.213625921614  -4.228822607666  -3.577090015477 Bohr   0.0
[INPUT] 20 Fe     1.792603362900   0.379874189300  -0.200337730300 AA    3.387529405855   0.717858179568  -0.378583442684 Bohr   0.0
[INPUT] 21 O      2.237796553000  -0.642223180300  -1.892914517600 AA    4.228822607666  -1.213625921614  -3.577090015477 Bohr   0.0
[INPUT] 22 O      2.642534200000  -1.046960908100   0.961324672200 AA    4.993665912797  -1.978469379435   1.816640347245 Bohr   0.0
[INPUT] 23 Al    -1.236271642100   1.236271642100   0.350650148000 AA   -2.336214819135   2.336214819135   0.662632745258 Bohr   0.0
[INPUT] 24 O     -0.044950195400   0.044950195400   0.012762141300 AA   -0.084943558552   0.084943558552   0.024116951820 Bohr   0.0
[INPUT] 25 C      1.645528685000  -1.645528685000  -2.357112465400 AA    3.109598544766  -3.109598544766  -4.454297004404 Bohr   0.0
[INPUT] 26 H      2.056906298400  -2.056906298400  -3.294571291600 AA    3.886989567869  -3.886989567869  -6.225837438979 Bohr   0.0
[INPUT] 27 C      2.160924281100  -2.160924281100   1.277584186800 AA    4.083555067202  -4.083555067202   2.414284214127 Bohr   0.0
[INPUT] 28 H      2.796080543300  -2.796080543300   1.918244302400 AA    5.283826449062  -5.283826449062   3.624956371543 Bohr   0.0

nuclear repulsion = 3455.30471244119
number of shells = 192
number of NR pGTOs = 1065
number of NR cGTOs = 674
basis = {'C': 'cc-pvdz', 'H': 'cc-pvdz', 'O': 'cc-pvtz', 'Al': 'cc-pvtz', 'Fe': 'cc-pvtz'}
ecp = {}
CPU time:         2.50


******** <class 'pyscf.df.df_jk.DFROHF'> ********
method = DFROHF
initial guess = minao
damping factor = 0
level_shift factor = 0
DIIS = <class 'pyscf.scf.diis.CDIIS'>
diis_start_cycle = 1
diis_space = 8
diis_damp = 0
SCF conv_tol = 1e-09
SCF conv_tol_grad = None
SCF max_cycles = 1
direct_scf = False
chkfile to save SCF result = /scratch/local/jobs/17682937/tmp_d4w9gep
max_memory 128000 MB (current use 78 MB)
num. doubly occ = 101  num. singly occ = 9
Set gradient conv threshold to 3.16228e-05
******** <class 'pyscf.df.df.DF'> ********
auxbasis = None
max_memory = 128000
Even tempered Gaussians are generated as DF auxbasis for  C Al H O Fe
init E= -3971.90238344316
  HOMO = 0.121056952198066  LUMO = 0.123678658553584
cycle= 1 E= -3943.04990514113  delta_E= 28.9  |g|= 9.05  |ddm|=   34
SCF not converged.
SCF energy = -3943.04990514113
Built 4 spin(local Sz)-shuffled LAS states from 1 reference LAS states
Built 13 singly-excited LAS states from 5 reference LAS states
Built 20 singly-excited LAS states from 18 reference LAS states
Built 24 singly-excited LAS states from 38 reference LAS states
Entering product-state fixed-point CI iteration
Cycle 0: max grad = 2.613888e-03 ; sigma = 0.000000e+00
Cycle 1: max grad = 1.136868e-13 ; sigma = 2.656736e-08
Cycle 2: max grad = 1.136868e-13 ; sigma = 1.136868e-13
Product_state fixed-point CI iteration converged after 2 cycles
Entering product-state fixed-point CI iteration
Cycle 0: max grad = 2.600930e-03 ; sigma = 0.000000e+00
Cycle 1: max grad = 1.989520e-13 ; sigma = 2.627451e-08
Cycle 2: max grad = 1.989520e-13 ; sigma = 2.273737e-13
Product_state fixed-point CI iteration converged after 2 cycles
Entering product-state fixed-point CI iteration
Cycle 0: max grad = 2.595377e-03 ; sigma = 0.000000e+00
Cycle 1: max grad = 8.122181e-14 ; sigma = 2.615366e-08
Cycle 2: max grad = 8.122181e-14 ; sigma = 4.547474e-13
Product_state fixed-point CI iteration converged after 2 cycles
Entering product-state fixed-point CI iteration
Cycle 0: max grad = 2.597228e-03 ; sigma = 0.000000e+00
Cycle 1: max grad = 1.421085e-13 ; sigma = 2.619367e-08
Cycle 2: max grad = 1.421085e-13 ; sigma = 1.136868e-13
Product_state fixed-point CI iteration converged after 2 cycles
Entering product-state fixed-point CI iteration
Cycle 0: max grad = 2.606484e-03 ; sigma = 0.000000e+00
Cycle 1: max grad = 1.191620e-15 ; sigma = 2.639820e-08
Cycle 2: max grad = 1.191620e-15 ; sigma = 0.000000e+00
Product_state fixed-point CI iteration converged after 2 cycles
Entering product-state fixed-point CI iteration
Cycle 0: max grad = 2.082574e-02 ; sigma = 0.000000e+00
Cycle 1: max grad = 1.752441e-04 ; sigma = 1.511821e-02
Cycle 2: max grad = 8.314607e-06 ; sigma = 3.871799e-06
Cycle 3: max grad = 8.554995e-08 ; sigma = 1.609010e-09
Cycle 4: max grad = 5.028205e-09 ; sigma = 1.136868e-13
Product_state fixed-point CI iteration converged after 4 cycles
Entering product-state fixed-point CI iteration
Cycle 0: max grad = 1.092801e-02 ; sigma = 0.000000e+00
Cycle 1: max grad = 8.960273e-04 ; sigma = 2.684367e-03
Cycle 2: max grad = 3.426537e-05 ; sigma = 1.441322e-05
Cycle 3: max grad = 1.019853e-06 ; sigma = 5.256754e-08
Cycle 4: max grad = 5.580141e-08 ; sigma = 9.163159e-11
Product_state fixed-point CI iteration converged after 4 cycles
Entering product-state fixed-point CI iteration
Cycle 0: max grad = 4.702213e-03 ; sigma = 0.000000e+00
Cycle 1: max grad = 1.271057e-14 ; sigma = 9.487285e-03
Cycle 2: max grad = 1.271057e-14 ; sigma = 5.684342e-14
Product_state fixed-point CI iteration converged after 2 cycles
Entering product-state fixed-point CI iteration
Cycle 0: max grad = 2.085785e-02 ; sigma = 0.000000e+00
Cycle 1: max grad = 1.524495e-04 ; sigma = 1.523050e-02
Cycle 2: max grad = 8.946919e-06 ; sigma = 1.781592e-05
Cycle 3: max grad = 4.057189e-08 ; sigma = 1.813760e-09
Cycle 4: max grad = 1.351860e-09 ; sigma = 4.547474e-13
Product_state fixed-point CI iteration converged after 4 cycles
Entering product-state fixed-point CI iteration
Cycle 0: max grad = 1.126303e-02 ; sigma = 0.000000e+00
Cycle 1: max grad = 4.072857e-04 ; sigma = 5.171691e-03
Cycle 2: max grad = 6.887223e-06 ; sigma = 7.383264e-06
Cycle 3: max grad = 9.055688e-08 ; sigma = 2.225079e-09
Cycle 4: max grad = 2.613758e-09 ; sigma = 1.136868e-12
Product_state fixed-point CI iteration converged after 4 cycles
Entering product-state fixed-point CI iteration
Cycle 0: max grad = 4.625156e-03 ; sigma = 0.000000e+00
Cycle 1: max grad = 7.190187e-14 ; sigma = 8.123216e-03
Cycle 2: max grad = 7.190187e-14 ; sigma = 0.000000e+00
Product_state fixed-point CI iteration converged after 2 cycles
Entering product-state fixed-point CI iteration
Cycle 0: max grad = 2.086427e-02 ; sigma = 0.000000e+00
Cycle 1: max grad = 1.534412e-04 ; sigma = 1.518602e-02
Cycle 2: max grad = 1.061299e-05 ; sigma = 2.708721e-05
Cycle 3: max grad = 1.402401e-08 ; sigma = 2.640718e-09
Cycle 4: max grad = 7.856902e-10 ; sigma = 6.821210e-13
Product_state fixed-point CI iteration converged after 4 cycles
Entering product-state fixed-point CI iteration
Cycle 0: max grad = 1.133004e-02 ; sigma = 0.000000e+00
Cycle 1: max grad = 3.215621e-04 ; sigma = 5.649119e-03
Cycle 2: max grad = 6.380793e-06 ; sigma = 8.362927e-06
Cycle 3: max grad = 6.784533e-08 ; sigma = 1.947456e-10
Cycle 4: max grad = 1.186507e-09 ; sigma = 2.273737e-12
Product_state fixed-point CI iteration converged after 4 cycles
Entering product-state fixed-point CI iteration
Cycle 0: max grad = 4.609744e-03 ; sigma = 0.000000e+00
Cycle 1: max grad = 4.044480e-14 ; sigma = 7.855686e-03
Cycle 2: max grad = 4.493867e-14 ; sigma = 5.684342e-14
Product_state fixed-point CI iteration converged after 2 cycles
Entering product-state fixed-point CI iteration
Cycle 0: max grad = 2.084501e-02 ; sigma = 0.000000e+00
Cycle 1: max grad = 1.546878e-04 ; sigma = 1.521806e-02
Cycle 2: max grad = 9.390878e-06 ; sigma = 7.933866e-06
Cycle 3: max grad = 6.681688e-08 ; sigma = 1.952685e-09
Cycle 4: max grad = 3.111697e-09 ; sigma = 6.821210e-13
Product_state fixed-point CI iteration converged after 4 cycles
Entering product-state fixed-point CI iteration
Cycle 0: max grad = 1.112902e-02 ; sigma = 0.000000e+00
Cycle 1: max grad = 5.869092e-04 ; sigma = 4.186383e-03
Cycle 2: max grad = 1.463911e-05 ; sigma = 2.259470e-06
Cycle 3: max grad = 3.033462e-07 ; sigma = 9.987616e-09
Cycle 4: max grad = 1.143684e-08 ; sigma = 6.366463e-12
Product_state fixed-point CI iteration converged after 4 cycles
Entering product-state fixed-point CI iteration
Cycle 0: max grad = 4.655979e-03 ; sigma = 0.000000e+00
Cycle 1: max grad = 1.271056e-14 ; sigma = 8.664761e-03
Cycle 2: max grad = 1.998401e-15 ; sigma = 5.684342e-14
Product_state fixed-point CI iteration converged after 2 cycles
Entering product-state fixed-point CI iteration
Cycle 0: max grad = 4.763859e-03 ; sigma = 0.000000e+00
Cycle 1: max grad = 5.329071e-15 ; sigma = 1.059492e-02
Cycle 2: max grad = 3.552714e-15 ; sigma = 0.000000e+00
Product_state fixed-point CI iteration converged after 2 cycles
Entering product-state fixed-point CI iteration
Cycle 0: max grad = 5.142736e-02 ; sigma = 0.000000e+00
Cycle 1: max grad = 1.129622e-04 ; sigma = 3.090202e-02
Cycle 2: max grad = 3.713231e-06 ; sigma = 2.679250e-07
Cycle 3: max grad = 9.091914e-08 ; sigma = 2.527258e-10
Cycle 4: max grad = 3.841372e-09 ; sigma = 3.410605e-13
Product_state fixed-point CI iteration converged after 4 cycles
Entering product-state fixed-point CI iteration
Cycle 0: max grad = 3.555833e-02 ; sigma = 0.000000e+00
Cycle 1: max grad = 3.767608e-04 ; sigma = 1.459558e-02
Cycle 2: max grad = 8.141187e-06 ; sigma = 3.151705e-06
Cycle 3: max grad = 1.888227e-07 ; sigma = 1.085255e-09
Cycle 4: max grad = 4.056304e-09 ; sigma = 1.136868e-12
Product_state fixed-point CI iteration converged after 4 cycles
Entering product-state fixed-point CI iteration
Cycle 0: max grad = 3.555833e-02 ; sigma = 0.000000e+00
Cycle 1: max grad = 1.653444e-13 ; sigma = 4.440074e-02
Cycle 2: max grad = 2.664745e-13 ; sigma = 0.000000e+00
Product_state fixed-point CI iteration converged after 2 cycles
Entering product-state fixed-point CI iteration
Cycle 0: max grad = 2.656898e-02 ; sigma = 0.000000e+00
Cycle 1: max grad = 3.192986e-05 ; sigma = 2.940541e-02
Cycle 2: max grad = 1.902600e-11 ; sigma = 8.640200e-12
Product_state fixed-point CI iteration converged after 2 cycles
Entering product-state fixed-point CI iteration
Cycle 0: max grad = 4.376381e-02 ; sigma = 0.000000e+00
Cycle 1: max grad = 6.944395e-04 ; sigma = 2.700074e-02
Cycle 2: max grad = 4.789258e-05 ; sigma = 1.585923e-05
Cycle 3: max grad = 3.148958e-06 ; sigma = 1.439844e-09
Cycle 4: max grad = 2.065774e-07 ; sigma = 3.183231e-12
Product_state fixed-point CI iteration converged after 4 cycles
Entering product-state fixed-point CI iteration
Cycle 0: max grad = 2.318672e-02 ; sigma = 0.000000e+00
Cycle 1: max grad = 2.880487e-04 ; sigma = 6.867998e-03
Cycle 2: max grad = 3.511076e-06 ; sigma = 2.970197e-06
Cycle 3: max grad = 1.304549e-07 ; sigma = 1.932733e-09
Cycle 4: max grad = 2.071977e-09 ; sigma = 9.094947e-13
Product_state fixed-point CI iteration converged after 4 cycles
Entering product-state fixed-point CI iteration
Cycle 0: max grad = 5.140563e-02 ; sigma = 0.000000e+00
Cycle 1: max grad = 6.843956e-05 ; sigma = 3.093134e-02
Cycle 2: max grad = 9.193868e-07 ; sigma = 7.834728e-08
Cycle 3: max grad = 1.063446e-08 ; sigma = 2.137313e-11
Product_state fixed-point CI iteration converged after 3 cycles
Entering product-state fixed-point CI iteration
Cycle 0: max grad = 3.555833e-02 ; sigma = 0.000000e+00
Cycle 1: max grad = 3.695577e-04 ; sigma = 1.605338e-02
Cycle 2: max grad = 1.430375e-05 ; sigma = 2.266874e-05
Cycle 3: max grad = 2.446407e-07 ; sigma = 1.945602e-08
Cycle 4: max grad = 1.497857e-08 ; sigma = 1.648459e-11
Product_state fixed-point CI iteration converged after 4 cycles
Entering product-state fixed-point CI iteration
Cycle 0: max grad = 3.555833e-02 ; sigma = 0.000000e+00
Cycle 1: max grad = 1.507289e-13 ; sigma = 4.562101e-02
Cycle 2: max grad = 1.834849e-13 ; sigma = 1.136868e-13
Product_state fixed-point CI iteration converged after 2 cycles
Entering product-state fixed-point CI iteration
Cycle 0: max grad = 2.656898e-02 ; sigma = 0.000000e+00
Cycle 1: max grad = 2.176376e-05 ; sigma = 2.967549e-02
Cycle 2: max grad = 5.044348e-12 ; sigma = 2.842171e-12
Product_state fixed-point CI iteration converged after 2 cycles
Entering product-state fixed-point CI iteration
Cycle 0: max grad = 4.355731e-02 ; sigma = 0.000000e+00
Cycle 1: max grad = 2.913052e-04 ; sigma = 2.725575e-02
Cycle 2: max grad = 1.774865e-05 ; sigma = 8.507922e-06
Cycle 3: max grad = 5.062326e-07 ; sigma = 7.536300e-09
Cycle 4: max grad = 2.973570e-08 ; sigma = 1.398348e-11
Product_state fixed-point CI iteration converged after 4 cycles
Entering product-state fixed-point CI iteration
Cycle 0: max grad = 2.308347e-02 ; sigma = 0.000000e+00
Cycle 1: max grad = 1.779705e-04 ; sigma = 7.502363e-03
Cycle 2: max grad = 1.401723e-06 ; sigma = 5.954337e-07
Cycle 3: max grad = 4.250732e-08 ; sigma = 3.271339e-10
Cycle 4: max grad = 4.082145e-10 ; sigma = 1.705303e-13
Product_state fixed-point CI iteration converged after 4 cycles
Entering product-state fixed-point CI iteration
Cycle 0: max grad = 5.141287e-02 ; sigma = 0.000000e+00
Cycle 1: max grad = 8.378726e-05 ; sigma = 3.092170e-02
Cycle 2: max grad = 1.671846e-06 ; sigma = 1.524128e-07
Cycle 3: max grad = 2.668624e-08 ; sigma = 6.752998e-11
Product_state fixed-point CI iteration converged after 3 cycles
Entering product-state fixed-point CI iteration
Cycle 0: max grad = 3.555833e-02 ; sigma = 0.000000e+00
Cycle 1: max grad = 2.416661e-04 ; sigma = 1.556274e-02
Cycle 2: max grad = 1.005245e-05 ; sigma = 1.100901e-05
Cycle 3: max grad = 1.152540e-07 ; sigma = 6.416144e-09
Cycle 4: max grad = 7.899921e-09 ; sigma = 4.320100e-12
Product_state fixed-point CI iteration converged after 4 cycles
Entering product-state fixed-point CI iteration
Cycle 0: max grad = 3.555833e-02 ; sigma = 0.000000e+00
Cycle 1: max grad = 1.847411e-13 ; sigma = 4.521032e-02
Cycle 2: max grad = 2.824463e-13 ; sigma = 4.547474e-13
Product_state fixed-point CI iteration converged after 2 cycles
Entering product-state fixed-point CI iteration
Cycle 0: max grad = 2.656898e-02 ; sigma = 0.000000e+00
Cycle 1: max grad = 2.521689e-05 ; sigma = 2.958261e-02
Cycle 2: max grad = 8.836302e-12 ; sigma = 3.979039e-12
Product_state fixed-point CI iteration converged after 2 cycles
Entering product-state fixed-point CI iteration
Cycle 0: max grad = 4.362614e-02 ; sigma = 0.000000e+00
Cycle 1: max grad = 4.246956e-04 ; sigma = 2.717818e-02
Cycle 2: max grad = 2.768951e-05 ; sigma = 1.208332e-05
Cycle 3: max grad = 1.142435e-06 ; sigma = 1.251647e-08
Cycle 4: max grad = 7.143484e-08 ; sigma = 3.296918e-11
Product_state fixed-point CI iteration converged after 4 cycles
Entering product-state fixed-point CI iteration
Cycle 0: max grad = 2.311789e-02 ; sigma = 0.000000e+00
Cycle 1: max grad = 2.138311e-04 ; sigma = 7.292379e-03
Cycle 2: max grad = 1.989230e-06 ; sigma = 1.247735e-06
Cycle 3: max grad = 6.541576e-08 ; sigma = 6.573373e-10
Cycle 4: max grad = 7.613330e-10 ; sigma = 5.684342e-14
Product_state fixed-point CI iteration converged after 4 cycles
Entering product-state fixed-point CI iteration
Cycle 0: max grad = 2.656898e-02 ; sigma = 0.000000e+00
Cycle 1: max grad = 4.399173e-05 ; sigma = 2.916392e-02
Cycle 2: max grad = 4.149781e-11 ; sigma = 2.114575e-11
Product_state fixed-point CI iteration converged after 2 cycles
Entering product-state fixed-point CI iteration
Cycle 0: max grad = 2.328997e-02 ; sigma = 0.000000e+00
Cycle 1: max grad = 4.053133e-04 ; sigma = 6.223736e-03
Cycle 2: max grad = 6.742216e-06 ; sigma = 6.748022e-06
Cycle 3: max grad = 2.863993e-07 ; sigma = 6.421203e-09
Cycle 4: max grad = 6.481094e-09 ; sigma = 5.798029e-12
Product_state fixed-point CI iteration converged after 4 cycles
Entering product-state fixed-point CI iteration
Cycle 0: max grad = 3.497920e-02 ; sigma = 0.000000e+00
Cycle 1: max grad = 1.846025e-04 ; sigma = 1.522279e-03
Cycle 2: max grad = 2.205055e-06 ; sigma = 1.379033e-06
Cycle 3: max grad = 2.116973e-08 ; sigma = 1.629132e-10
Cycle 4: max grad = 3.613767e-10 ; sigma = 0.000000e+00
Product_state fixed-point CI iteration converged after 4 cycles
Entering product-state fixed-point CI iteration
Cycle 0: max grad = 4.077821e-02 ; sigma = 0.000000e+00
Cycle 1: max grad = 2.202720e-04 ; sigma = 1.140440e-02
Cycle 2: max grad = 2.730168e-06 ; sigma = 1.017930e-06
Cycle 3: max grad = 1.329047e-07 ; sigma = 4.891945e-10
Cycle 4: max grad = 2.667210e-09 ; sigma = 5.684342e-13
Product_state fixed-point CI iteration converged after 4 cycles
Entering product-state fixed-point CI iteration
Cycle 0: max grad = 3.103895e-02 ; sigma = 0.000000e+00
Cycle 1: max grad = 9.759462e-05 ; sigma = 3.642824e-02
Cycle 2: max grad = 1.818411e-07 ; sigma = 4.243720e-07
Cycle 3: max grad = 1.256061e-09 ; sigma = 7.958079e-13
Product_state fixed-point CI iteration converged after 3 cycles
Entering product-state fixed-point CI iteration
Cycle 0: max grad = 4.086785e-02 ; sigma = 0.000000e+00
Cycle 1: max grad = 1.535786e-04 ; sigma = 6.346561e-02
Cycle 2: max grad = 1.516274e-05 ; sigma = 1.944508e-05
Cycle 3: max grad = 1.589741e-06 ; sigma = 6.990251e-08
Cycle 4: max grad = 6.829461e-08 ; sigma = 3.180958e-10
Cycle 5: max grad = 7.307867e-09 ; sigma = 2.387424e-12
Product_state fixed-point CI iteration converged after 5 cycles
Entering product-state fixed-point CI iteration
Cycle 0: max grad = 4.513273e-02 ; sigma = 0.000000e+00
Cycle 1: max grad = 3.856744e-04 ; sigma = 3.118278e-02
Cycle 2: max grad = 2.412779e-05 ; sigma = 3.044277e-05
Cycle 3: max grad = 1.023157e-06 ; sigma = 5.250922e-08
Cycle 4: max grad = 4.840001e-08 ; sigma = 1.024318e-10
Cycle 5: max grad = 2.488932e-09 ; sigma = 3.410605e-13
Product_state fixed-point CI iteration converged after 5 cycles
Entering product-state fixed-point CI iteration
Cycle 0: max grad = 4.506502e-02 ; sigma = 0.000000e+00
Cycle 1: max grad = 5.940585e-04 ; sigma = 7.124206e-02
Cycle 2: max grad = 1.911303e-05 ; sigma = 1.594766e-05
Cycle 3: max grad = 3.032054e-06 ; sigma = 9.976441e-08
Cycle 4: max grad = 1.394425e-07 ; sigma = 7.794370e-10
Cycle 5: max grad = 2.300560e-08 ; sigma = 5.570655e-12
Product_state fixed-point CI iteration converged after 5 cycles
Entering product-state fixed-point CI iteration
Cycle 0: max grad = 3.135957e-02 ; sigma = 0.000000e+00
Cycle 1: max grad = 1.521807e-04 ; sigma = 3.549707e-02
Cycle 2: max grad = 8.917296e-06 ; sigma = 7.066226e-06
Cycle 3: max grad = 1.476451e-07 ; sigma = 4.896265e-09
Cycle 4: max grad = 1.807276e-08 ; sigma = 1.227818e-11
Product_state fixed-point CI iteration converged after 4 cycles
Entering product-state fixed-point CI iteration
Cycle 0: max grad = 3.135957e-02 ; sigma = 0.000000e+00
Cycle 1: max grad = 4.493872e-15 ; sigma = 4.748174e-02
Cycle 2: max grad = 4.493872e-15 ; sigma = 0.000000e+00
Product_state fixed-point CI iteration converged after 2 cycles
Entering product-state fixed-point CI iteration
Cycle 0: max grad = 2.765486e-02 ; sigma = 0.000000e+00
Cycle 1: max grad = 1.253040e-03 ; sigma = 2.135280e-02
Cycle 2: max grad = 2.425291e-05 ; sigma = 6.642518e-05
Cycle 3: max grad = 2.604843e-06 ; sigma = 5.840923e-08
Cycle 4: max grad = 1.252198e-07 ; sigma = 3.276455e-10
Cycle 5: max grad = 1.340770e-08 ; sigma = 2.614797e-12
Product_state fixed-point CI iteration converged after 5 cycles
Entering product-state fixed-point CI iteration
Cycle 0: max grad = 4.559558e-02 ; sigma = 0.000000e+00
Cycle 1: max grad = 4.004723e-04 ; sigma = 4.020617e-02
Cycle 2: max grad = 1.790719e-05 ; sigma = 2.382672e-05
Cycle 3: max grad = 3.414500e-07 ; sigma = 6.700247e-09
Cycle 4: max grad = 1.423133e-08 ; sigma = 5.286438e-12
Product_state fixed-point CI iteration converged after 4 cycles
Entering product-state fixed-point CI iteration
Cycle 0: max grad = 3.497722e-02 ; sigma = 0.000000e+00
Cycle 1: max grad = 8.419678e-05 ; sigma = 1.509569e-03
Cycle 2: max grad = 5.276051e-07 ; sigma = 3.038525e-07
Cycle 3: max grad = 2.325378e-09 ; sigma = 8.299139e-12
Product_state fixed-point CI iteration converged after 3 cycles
Entering product-state fixed-point CI iteration
Cycle 0: max grad = 4.088732e-02 ; sigma = 0.000000e+00
Cycle 1: max grad = 2.315659e-04 ; sigma = 1.159313e-02
Cycle 2: max grad = 3.804478e-06 ; sigma = 2.962236e-07
Cycle 3: max grad = 5.520835e-08 ; sigma = 5.653646e-10
Cycle 4: max grad = 4.613560e-09 ; sigma = 7.958079e-13
Product_state fixed-point CI iteration converged after 4 cycles
Entering product-state fixed-point CI iteration
Cycle 0: max grad = 3.104331e-02 ; sigma = 0.000000e+00
Cycle 1: max grad = 8.441299e-05 ; sigma = 3.627529e-02
Cycle 2: max grad = 3.376338e-07 ; sigma = 4.877113e-07
Cycle 3: max grad = 2.816776e-09 ; sigma = 3.296918e-12
Product_state fixed-point CI iteration converged after 3 cycles
Entering product-state fixed-point CI iteration
Cycle 0: max grad = 4.088732e-02 ; sigma = 0.000000e+00
Cycle 1: max grad = 2.763433e-04 ; sigma = 6.350623e-02
Cycle 2: max grad = 5.291008e-05 ; sigma = 8.804131e-05
Cycle 3: max grad = 2.967388e-06 ; sigma = 7.513030e-07
Cycle 4: max grad = 6.183862e-07 ; sigma = 7.883955e-09
Cycle 5: max grad = 2.684206e-08 ; sigma = 9.129053e-11
Product_state fixed-point CI iteration converged after 5 cycles
Entering product-state fixed-point CI iteration
Cycle 0: max grad = 4.501704e-02 ; sigma = 0.000000e+00
Cycle 1: max grad = 2.663458e-04 ; sigma = 3.197645e-02
Cycle 2: max grad = 2.120715e-05 ; sigma = 1.759039e-05
Cycle 3: max grad = 2.059874e-06 ; sigma = 3.553123e-08
Cycle 4: max grad = 2.994793e-07 ; sigma = 4.339427e-10
Cycle 5: max grad = 2.916106e-08 ; sigma = 6.593837e-12
Product_state fixed-point CI iteration converged after 5 cycles
Entering product-state fixed-point CI iteration
Cycle 0: max grad = 4.497005e-02 ; sigma = 0.000000e+00
Cycle 1: max grad = 3.959127e-04 ; sigma = 7.241488e-02
Cycle 2: max grad = 8.295760e-05 ; sigma = 3.688669e-05
Cycle 3: max grad = 5.940956e-06 ; sigma = 1.278973e-06
Cycle 4: max grad = 2.670983e-06 ; sigma = 3.749074e-08
Cycle 5: max grad = 1.748518e-07 ; sigma = 1.084800e-09
Cycle 6: max grad = 7.754184e-08 ; sigma = 3.137757e-11
Product_state fixed-point CI iteration converged after 6 cycles
Entering product-state fixed-point CI iteration
Cycle 0: max grad = 3.135957e-02 ; sigma = 0.000000e+00
Cycle 1: max grad = 1.192357e-04 ; sigma = 3.516942e-02
Cycle 2: max grad = 6.190899e-06 ; sigma = 4.974860e-06
Cycle 3: max grad = 9.972677e-08 ; sigma = 3.105811e-09
Cycle 4: max grad = 1.110791e-08 ; sigma = 7.730705e-12
Product_state fixed-point CI iteration converged after 4 cycles
Entering product-state fixed-point CI iteration
Cycle 0: max grad = 3.135957e-02 ; sigma = 0.000000e+00
Cycle 1: max grad = 3.595093e-14 ; sigma = 4.729441e-02
Cycle 2: max grad = 4.493867e-14 ; sigma = 5.684342e-14
Product_state fixed-point CI iteration converged after 2 cycles
Entering product-state fixed-point CI iteration
Cycle 0: max grad = 2.733685e-02 ; sigma = 0.000000e+00
Cycle 1: max grad = 5.808691e-04 ; sigma = 2.108632e-02
Cycle 2: max grad = 6.219542e-06 ; sigma = 1.762008e-05
Cycle 3: max grad = 2.832228e-07 ; sigma = 2.810225e-09
Cycle 4: max grad = 7.001151e-09 ; sigma = 3.410605e-12
Product_state fixed-point CI iteration converged after 4 cycles
Entering product-state fixed-point CI iteration
Cycle 0: max grad = 4.556828e-02 ; sigma = 0.000000e+00
Cycle 1: max grad = 2.941654e-04 ; sigma = 4.017825e-02
Cycle 2: max grad = 9.275425e-06 ; sigma = 1.313782e-05
Cycle 3: max grad = 1.229803e-07 ; sigma = 1.906699e-09
Cycle 4: max grad = 3.681851e-09 ; sigma = 7.958079e-13
Product_state fixed-point CI iteration converged after 4 cycles
Entering product-state fixed-point CI iteration
Cycle 0: max grad = 4.082892e-02 ; sigma = 0.000000e+00
Cycle 1: max grad = 2.522867e-04 ; sigma = 6.338451e-02
Cycle 2: max grad = 2.201966e-05 ; sigma = 5.001175e-06
Cycle 3: max grad = 7.468353e-07 ; sigma = 1.881949e-08
Cycle 4: max grad = 8.518529e-08 ; sigma = 8.390089e-11
Product_state fixed-point CI iteration converged after 4 cycles
Entering product-state fixed-point CI iteration
Cycle 0: max grad = 3.135957e-02 ; sigma = 0.000000e+00
Cycle 1: max grad = 2.641399e-04 ; sigma = 3.616416e-02
Cycle 2: max grad = 1.397933e-05 ; sigma = 7.727996e-06
Cycle 3: max grad = 8.252564e-07 ; sigma = 4.467438e-09
Cycle 4: max grad = 3.926919e-08 ; sigma = 1.250555e-11
Product_state fixed-point CI iteration converged after 4 cycles
Entering product-state fixed-point CI iteration
Cycle 0: max grad = 3.135957e-02 ; sigma = 0.000000e+00
Cycle 1: max grad = 5.084231e-14 ; sigma = 4.786389e-02
Cycle 2: max grad = 5.084231e-14 ; sigma = 0.000000e+00
Product_state fixed-point CI iteration converged after 2 cycles
Entering product-state fixed-point CI iteration
Cycle 0: max grad = 4.565016e-02 ; sigma = 0.000000e+00
Cycle 1: max grad = 6.129309e-04 ; sigma = 4.025430e-02
Cycle 2: max grad = 4.346316e-05 ; sigma = 5.346203e-05
Cycle 3: max grad = 1.360214e-06 ; sigma = 3.812920e-08
Cycle 4: max grad = 8.940472e-08 ; sigma = 7.997869e-11
Product_state fixed-point CI iteration converged after 4 cycles
LASSCF state-average energy = -3971.78172024685
LASSCF state 0 energy = -3971.78172024685
LASSCF state 1 energy = -3971.78544204859
LASSCF state 2 energy = -3971.78703710648
LASSCF state 3 energy = -3971.78650542051
LASSCF state 4 energy = -3971.7838469907
LASSCF state 5 energy = -3970.70223739246
LASSCF state 6 energy = -3971.21910487135
LASSCF state 7 energy = -3713.27300419917
LASSCF state 8 energy = -3970.70405629642
LASSCF state 9 energy = -3971.22057596479
LASSCF state 10 energy = -3713.2740322833
LASSCF state 11 energy = -3970.704458501
LASSCF state 12 energy = -3971.22089075077
LASSCF state 13 energy = -3713.27424318433
LASSCF state 14 energy = -3970.70330901925
LASSCF state 15 energy = -3971.21997533099
LASSCF state 16 energy = -3713.27361696757
LASSCF state 17 energy = -3713.27219810874
LASSCF state 18 energy = -3968.32922189875
LASSCF state 19 energy = -3971.57255611491
LASSCF state 20 energy = -3971.69954574247
LASSCF state 21 energy = -3971.6583235955
LASSCF state 22 energy = -3969.36351704038
LASSCF state 23 energy = -3710.99758794905
LASSCF state 24 energy = -3968.32960527266
LASSCF state 25 energy = -3971.57529455087
LASSCF state 26 energy = -3971.70157163074
LASSCF state 27 energy = -3971.66025628802
LASSCF state 28 energy = -3969.36434555201
LASSCF state 29 energy = -3710.99832357843
LASSCF state 30 energy = -3968.32947678906
LASSCF state 31 energy = -3971.57436305258
LASSCF state 32 energy = -3971.70089240146
LASSCF state 33 energy = -3971.65960920436
LASSCF state 34 energy = -3969.36406134788
LASSCF state 35 energy = -3710.99807674165
LASSCF state 36 energy = -3971.65641949914
LASSCF state 37 energy = -3710.99686390826
LASSCF state 38 energy = -3964.50700482338
LASSCF state 39 energy = -3970.59127140006
LASSCF state 40 energy = -3970.65794520233
LASSCF state 41 energy = -3970.63689586099
LASSCF state 42 energy = -3971.09236386959
LASSCF state 43 energy = -3971.17843820462
LASSCF state 44 energy = -3971.13414689497
LASSCF state 45 energy = -3713.18709606834
LASSCF state 46 energy = -3966.10056939061
LASSCF state 47 energy = -3707.3598538793
LASSCF state 48 energy = -3964.5070931681
LASSCF state 49 energy = -3970.59147257609
LASSCF state 50 energy = -3970.65811045389
LASSCF state 51 energy = -3970.63732598356
LASSCF state 52 energy = -3971.09274209842
LASSCF state 53 energy = -3971.17873749115
LASSCF state 54 energy = -3971.13443746025
LASSCF state 55 energy = -3713.18730853843
LASSCF state 56 energy = -3966.10080235233
LASSCF state 57 energy = -3707.36012607063
LASSCF state 58 energy = -3970.63615825147
LASSCF state 59 energy = -3971.13358608017
LASSCF state 60 energy = -3713.18667862007
LASSCF state 61 energy = -3707.35932694037
Entering product-state fixed-point CI iteration
Cycle 0: max grad = 4.221177e+03 ; sigma = 0.000000e+00
Cycle 1: max grad = 5.158096e-13 ; sigma = 1.136868e-13
Product_state fixed-point CI iteration converged after 1 cycles
Entering product-state fixed-point CI iteration
Cycle 0: max grad = 4.220975e+03 ; sigma = 0.000000e+00
Cycle 1: max grad = 1.740830e-13 ; sigma = 2.273737e-13
Product_state fixed-point CI iteration converged after 1 cycles
Entering product-state fixed-point CI iteration
Cycle 0: max grad = 4.220791e+03 ; sigma = 0.000000e+00
Cycle 1: max grad = 4.989339e-13 ; sigma = 4.547474e-13
Product_state fixed-point CI iteration converged after 1 cycles
Entering product-state fixed-point CI iteration
Cycle 0: max grad = 4.220864e+03 ; sigma = 0.000000e+00
Cycle 1: max grad = 4.165557e-13 ; sigma = 0.000000e+00
Product_state fixed-point CI iteration converged after 1 cycles
Entering product-state fixed-point CI iteration
Cycle 0: max grad = 4.221086e+03 ; sigma = 0.000000e+00
Cycle 1: max grad = 4.511946e-13 ; sigma = 0.000000e+00
Product_state fixed-point CI iteration converged after 1 cycles
Entering product-state fixed-point CI iteration
Cycle 0: max grad = 1.139154e+04 ; sigma = 0.000000e+00
Cycle 1: max grad = 5.521198e-11 ; sigma = 9.094947e-13
Product_state fixed-point CI iteration converged after 1 cycles
Entering product-state fixed-point CI iteration
Cycle 0: max grad = 6.016425e+03 ; sigma = 0.000000e+00
Cycle 1: max grad = 1.636136e-09 ; sigma = 2.046363e-12
Product_state fixed-point CI iteration converged after 1 cycles
Entering product-state fixed-point CI iteration
Cycle 0: max grad = 1.256595e+02 ; sigma = 0.000000e+00
Cycle 1: max grad = 1.271057e-14 ; sigma = 5.684342e-14
Product_state fixed-point CI iteration converged after 1 cycles
Entering product-state fixed-point CI iteration
Cycle 0: max grad = 9.624634e+03 ; sigma = 0.000000e+00
Cycle 1: max grad = 7.633373e-12 ; sigma = 1.136868e-12
Product_state fixed-point CI iteration converged after 1 cycles
Entering product-state fixed-point CI iteration
Cycle 0: max grad = 6.169005e+03 ; sigma = 0.000000e+00
Cycle 1: max grad = 4.230774e-11 ; sigma = 2.160050e-12
Product_state fixed-point CI iteration converged after 1 cycles
Entering product-state fixed-point CI iteration
Cycle 0: max grad = 1.223856e+02 ; sigma = 0.000000e+00
Cycle 1: max grad = 7.190187e-14 ; sigma = 5.684342e-14
Product_state fixed-point CI iteration converged after 1 cycles
Entering product-state fixed-point CI iteration
Cycle 0: max grad = 8.433412e+03 ; sigma = 0.000000e+00
Cycle 1: max grad = 2.489915e-12 ; sigma = 1.591616e-12
Product_state fixed-point CI iteration converged after 1 cycles
Entering product-state fixed-point CI iteration
Cycle 0: max grad = 6.197626e+03 ; sigma = 0.000000e+00
Cycle 1: max grad = 3.490870e-11 ; sigma = 2.160050e-12
Product_state fixed-point CI iteration converged after 1 cycles
Entering product-state fixed-point CI iteration
Cycle 0: max grad = 1.208087e+02 ; sigma = 0.000000e+00
Cycle 1: max grad = 4.493867e-14 ; sigma = 5.684342e-14
Product_state fixed-point CI iteration converged after 1 cycles
Entering product-state fixed-point CI iteration
Cycle 0: max grad = 1.073487e+04 ; sigma = 0.000000e+00
Cycle 1: max grad = 2.467064e-11 ; sigma = 7.958079e-13
Product_state fixed-point CI iteration converged after 1 cycles
Entering product-state fixed-point CI iteration
Cycle 0: max grad = 6.109519e+03 ; sigma = 0.000000e+00
Cycle 1: max grad = 2.424760e-10 ; sigma = 2.273737e-12
Product_state fixed-point CI iteration converged after 1 cycles
Entering product-state fixed-point CI iteration
Cycle 0: max grad = 2.316471e+02 ; sigma = 0.000000e+00
Cycle 1: max grad = 1.271056e-14 ; sigma = 5.684342e-14
Product_state fixed-point CI iteration converged after 1 cycles
Entering product-state fixed-point CI iteration
Cycle 0: max grad = 1.259835e+02 ; sigma = 0.000000e+00
Cycle 1: max grad = 3.588378e-15 ; sigma = 0.000000e+00
Product_state fixed-point CI iteration converged after 1 cycles
Entering product-state fixed-point CI iteration
Cycle 0: max grad = 1.055810e+04 ; sigma = 0.000000e+00
Cycle 1: max grad = 1.280620e-10 ; sigma = 4.547474e-13
Product_state fixed-point CI iteration converged after 1 cycles
Entering product-state fixed-point CI iteration
Cycle 0: max grad = 7.294314e+03 ; sigma = 0.000000e+00
Cycle 1: max grad = 1.444862e-10 ; sigma = 2.273737e-13
Product_state fixed-point CI iteration converged after 1 cycles
Entering product-state fixed-point CI iteration
Cycle 0: max grad = 1.928366e+03 ; sigma = 0.000000e+00
Cycle 1: max grad = 1.448086e-11 ; sigma = 1.136868e-13
Product_state fixed-point CI iteration converged after 1 cycles
Entering product-state fixed-point CI iteration
Cycle 0: max grad = 4.209463e+03 ; sigma = 0.000000e+00
Cycle 1: max grad = 7.585044e-13 ; sigma = 2.273737e-13
Product_state fixed-point CI iteration converged after 1 cycles
Entering product-state fixed-point CI iteration
Cycle 0: max grad = 3.813494e+03 ; sigma = 0.000000e+00
Cycle 1: max grad = 1.722781e-08 ; sigma = 1.136868e-12
Product_state fixed-point CI iteration converged after 1 cycles
Entering product-state fixed-point CI iteration
Cycle 0: max grad = 2.619677e+03 ; sigma = 0.000000e+00
Cycle 1: max grad = 1.009550e-10 ; sigma = 1.136868e-13
Product_state fixed-point CI iteration converged after 1 cycles
Entering product-state fixed-point CI iteration
Cycle 0: max grad = 1.052781e+04 ; sigma = 0.000000e+00
Cycle 1: max grad = 2.417653e-10 ; sigma = 4.547474e-13
Product_state fixed-point CI iteration converged after 1 cycles
Entering product-state fixed-point CI iteration
Cycle 0: max grad = 7.591132e+03 ; sigma = 0.000000e+00
Cycle 1: max grad = 4.658360e-10 ; sigma = 1.136868e-13
Product_state fixed-point CI iteration converged after 1 cycles
Entering product-state fixed-point CI iteration
Cycle 0: max grad = 1.923612e+03 ; sigma = 0.000000e+00
Cycle 1: max grad = 2.506273e-12 ; sigma = 1.136868e-13
Product_state fixed-point CI iteration converged after 1 cycles
Entering product-state fixed-point CI iteration
Cycle 0: max grad = 4.204911e+03 ; sigma = 0.000000e+00
Cycle 1: max grad = 1.392374e-13 ; sigma = 1.136868e-13
Product_state fixed-point CI iteration converged after 1 cycles
Entering product-state fixed-point CI iteration
Cycle 0: max grad = 1.174830e+04 ; sigma = 0.000000e+00
Cycle 1: max grad = 1.065576e-09 ; sigma = 1.250555e-12
Product_state fixed-point CI iteration converged after 1 cycles
Entering product-state fixed-point CI iteration
Cycle 0: max grad = 2.628110e+03 ; sigma = 0.000000e+00
Cycle 1: max grad = 1.566860e-11 ; sigma = 1.705303e-13
Product_state fixed-point CI iteration converged after 1 cycles
Entering product-state fixed-point CI iteration
Cycle 0: max grad = 1.053839e+04 ; sigma = 0.000000e+00
Cycle 1: max grad = 8.645417e-10 ; sigma = 1.136868e-13
Product_state fixed-point CI iteration converged after 1 cycles
Entering product-state fixed-point CI iteration
Cycle 0: max grad = 7.497526e+03 ; sigma = 0.000000e+00
Cycle 1: max grad = 2.222253e-10 ; sigma = 1.136868e-13
Product_state fixed-point CI iteration converged after 1 cycles
Entering product-state fixed-point CI iteration
Cycle 0: max grad = 7.538751e+03 ; sigma = 0.000000e+00
Cycle 1: max grad = 3.183231e-12 ; sigma = 0.000000e+00
Product_state fixed-point CI iteration converged after 1 cycles
Entering product-state fixed-point CI iteration
Cycle 0: max grad = 4.205373e+03 ; sigma = 0.000000e+00
Cycle 1: max grad = 3.206324e-13 ; sigma = 1.136868e-13
Product_state fixed-point CI iteration converged after 1 cycles
Entering product-state fixed-point CI iteration
Cycle 0: max grad = 3.815691e+03 ; sigma = 0.000000e+00
Cycle 1: max grad = 3.727234e-09 ; sigma = 1.250555e-12
Product_state fixed-point CI iteration converged after 1 cycles
Entering product-state fixed-point CI iteration
Cycle 0: max grad = 2.625297e+03 ; sigma = 0.000000e+00
Cycle 1: max grad = 3.209546e-11 ; sigma = 0.000000e+00
Product_state fixed-point CI iteration converged after 1 cycles
Entering product-state fixed-point CI iteration
Cycle 0: max grad = 4.219125e+03 ; sigma = 0.000000e+00
Cycle 1: max grad = 3.067570e-13 ; sigma = 1.136868e-13
Product_state fixed-point CI iteration converged after 1 cycles
Entering product-state fixed-point CI iteration
Cycle 0: max grad = 2.611206e+03 ; sigma = 0.000000e+00
Cycle 1: max grad = 3.700990e-10 ; sigma = 1.136868e-13
Product_state fixed-point CI iteration converged after 1 cycles
Entering product-state fixed-point CI iteration
Cycle 0: max grad = 1.133731e+04 ; sigma = 0.000000e+00
Cycle 1: max grad = 5.839773e-12 ; sigma = 1.136868e-13
Product_state fixed-point CI iteration converged after 1 cycles
Entering product-state fixed-point CI iteration
Cycle 0: max grad = 8.434910e+03 ; sigma = 0.000000e+00
Cycle 1: max grad = 2.648231e-10 ; sigma = 1.136868e-13
Product_state fixed-point CI iteration converged after 1 cycles
Entering product-state fixed-point CI iteration
Cycle 0: max grad = 8.439170e+03 ; sigma = 0.000000e+00
Cycle 1: max grad = 1.308370e-11 ; sigma = 4.547474e-13
Product_state fixed-point CI iteration converged after 1 cycles
Entering product-state fixed-point CI iteration
Cycle 0: max grad = 1.013308e+04 ; sigma = 0.000000e+00
Cycle 1: max grad = 8.752949e-10 ; sigma = 4.547474e-13
Product_state fixed-point CI iteration converged after 1 cycles
Entering product-state fixed-point CI iteration
Cycle 0: max grad = 6.507979e+03 ; sigma = 0.000000e+00
Cycle 1: max grad = 1.968203e-10 ; sigma = 4.547474e-13
Product_state fixed-point CI iteration converged after 1 cycles
Entering product-state fixed-point CI iteration
Cycle 0: max grad = 6.436494e+03 ; sigma = 0.000000e+00
Cycle 1: max grad = 1.137232e-09 ; sigma = 4.547474e-13
Product_state fixed-point CI iteration converged after 1 cycles
Entering product-state fixed-point CI iteration
Cycle 0: max grad = 6.031141e+03 ; sigma = 0.000000e+00
Cycle 1: max grad = 3.329889e-10 ; sigma = 2.273737e-12
Product_state fixed-point CI iteration converged after 1 cycles
Entering product-state fixed-point CI iteration
Cycle 0: max grad = 4.968858e+01 ; sigma = 0.000000e+00
Cycle 1: max grad = 7.993606e-15 ; sigma = 0.000000e+00
Product_state fixed-point CI iteration converged after 1 cycles
Entering product-state fixed-point CI iteration
Cycle 0: max grad = 4.886732e+03 ; sigma = 0.000000e+00
Cycle 1: max grad = 7.459960e-10 ; sigma = 7.958079e-13
Product_state fixed-point CI iteration converged after 1 cycles
Entering product-state fixed-point CI iteration
Cycle 0: max grad = 2.019975e+03 ; sigma = 0.000000e+00
Cycle 1: max grad = 3.165406e-10 ; sigma = 1.136868e-13
Product_state fixed-point CI iteration converged after 1 cycles
Entering product-state fixed-point CI iteration
Cycle 0: max grad = 1.133988e+04 ; sigma = 0.000000e+00
Cycle 1: max grad = 2.624292e-11 ; sigma = 2.273737e-13
Product_state fixed-point CI iteration converged after 1 cycles
Entering product-state fixed-point CI iteration
Cycle 0: max grad = 8.432750e+03 ; sigma = 0.000000e+00
Cycle 1: max grad = 9.472245e-11 ; sigma = 1.136868e-13
Product_state fixed-point CI iteration converged after 1 cycles
Entering product-state fixed-point CI iteration
Cycle 0: max grad = 8.458707e+03 ; sigma = 0.000000e+00
Cycle 1: max grad = 2.603240e-11 ; sigma = 2.273737e-13
Product_state fixed-point CI iteration converged after 1 cycles
Entering product-state fixed-point CI iteration
Cycle 0: max grad = 8.278936e+03 ; sigma = 0.000000e+00
Cycle 1: max grad = 1.755578e-08 ; sigma = 1.136868e-13
Product_state fixed-point CI iteration converged after 1 cycles
Entering product-state fixed-point CI iteration
Cycle 0: max grad = 6.488404e+03 ; sigma = 0.000000e+00
Cycle 1: max grad = 4.946088e-09 ; sigma = 3.410605e-13
Product_state fixed-point CI iteration converged after 1 cycles
Entering product-state fixed-point CI iteration
Cycle 0: max grad = 6.240701e+03 ; sigma = 0.000000e+00
Cycle 1: max grad = 5.612191e-09 ; sigma = 1.136868e-12
Product_state fixed-point CI iteration converged after 1 cycles
Entering product-state fixed-point CI iteration
Cycle 0: max grad = 6.040327e+03 ; sigma = 0.000000e+00
Cycle 1: max grad = 2.017188e-10 ; sigma = 2.046363e-12
Product_state fixed-point CI iteration converged after 1 cycles
Entering product-state fixed-point CI iteration
Cycle 0: max grad = 1.364200e+02 ; sigma = 0.000000e+00
Cycle 1: max grad = 3.595093e-14 ; sigma = 0.000000e+00
Product_state fixed-point CI iteration converged after 1 cycles
Entering product-state fixed-point CI iteration
Cycle 0: max grad = 4.886041e+03 ; sigma = 0.000000e+00
Cycle 1: max grad = 3.149039e-10 ; sigma = 7.958079e-13
Product_state fixed-point CI iteration converged after 1 cycles
Entering product-state fixed-point CI iteration
Cycle 0: max grad = 4.985131e+03 ; sigma = 0.000000e+00
Cycle 1: max grad = 6.007651e-11 ; sigma = 5.684342e-14
Product_state fixed-point CI iteration converged after 1 cycles
Entering product-state fixed-point CI iteration
Cycle 0: max grad = 1.127953e+04 ; sigma = 0.000000e+00
Cycle 1: max grad = 3.735261e-09 ; sigma = 2.273737e-13
Product_state fixed-point CI iteration converged after 1 cycles
Entering product-state fixed-point CI iteration
Cycle 0: max grad = 6.017748e+03 ; sigma = 0.000000e+00
Cycle 1: max grad = 2.151030e-09 ; sigma = 2.728484e-12
Product_state fixed-point CI iteration converged after 1 cycles
Entering product-state fixed-point CI iteration
Cycle 0: max grad = 5.021805e+01 ; sigma = 0.000000e+00
Cycle 1: max grad = 5.084231e-14 ; sigma = 5.684342e-14
Product_state fixed-point CI iteration converged after 1 cycles
Entering product-state fixed-point CI iteration
Cycle 0: max grad = 4.985855e+03 ; sigma = 0.000000e+00
Cycle 1: max grad = 3.385200e-09 ; sigma = 5.684342e-14
Product_state fixed-point CI iteration converged after 1 cycles
LASSCF state-average energy = -3971.78172024685
LASSCF state 0 energy = -3971.78172024685
LASSCF state 1 energy = -3971.78544204859
LASSCF state 2 energy = -3971.78703710648
LASSCF state 3 energy = -3971.78650542051
LASSCF state 4 energy = -3971.7838469907
LASSCF state 5 energy = -3970.70223739246
LASSCF state 6 energy = -3971.21910487136
LASSCF state 7 energy = -3713.27300419917
LASSCF state 8 energy = -3970.70405629642
LASSCF state 9 energy = -3971.22057596479
LASSCF state 10 energy = -3713.2740322833
LASSCF state 11 energy = -3970.704458501
LASSCF state 12 energy = -3971.22089075077
LASSCF state 13 energy = -3713.27424318433
LASSCF state 14 energy = -3970.70330901925
LASSCF state 15 energy = -3971.21997533099
LASSCF state 16 energy = -3713.27361696757
LASSCF state 17 energy = -3713.27219810874
LASSCF state 18 energy = -3968.32922189875
LASSCF state 19 energy = -3971.57255611491
LASSCF state 20 energy = -3971.69954574247
LASSCF state 21 energy = -3971.6583235955
LASSCF state 22 energy = -3969.36351704038
LASSCF state 23 energy = -3710.99758794905
LASSCF state 24 energy = -3968.32960527266
LASSCF state 25 energy = -3971.57529455087
LASSCF state 26 energy = -3971.70157163074
LASSCF state 27 energy = -3971.66025628802
LASSCF state 28 energy = -3969.36434555201
LASSCF state 29 energy = -3710.99832357843
LASSCF state 30 energy = -3968.32947678906
LASSCF state 31 energy = -3971.57436305258
LASSCF state 32 energy = -3971.70089240146
LASSCF state 33 energy = -3971.65960920436
LASSCF state 34 energy = -3969.36406134788
LASSCF state 35 energy = -3710.99807674165
LASSCF state 36 energy = -3971.65641949914
LASSCF state 37 energy = -3710.99686390826
LASSCF state 38 energy = -3964.50700482338
LASSCF state 39 energy = -3970.59127140006
LASSCF state 40 energy = -3970.65794520233
LASSCF state 41 energy = -3970.63689586099
LASSCF state 42 energy = -3971.09236386959
LASSCF state 43 energy = -3971.17843820462
LASSCF state 44 energy = -3971.13414689497
LASSCF state 45 energy = -3713.18709606834
LASSCF state 46 energy = -3966.10056939061
LASSCF state 47 energy = -3707.3598538793
LASSCF state 48 energy = -3964.5070931681
LASSCF state 49 energy = -3970.59147257609
LASSCF state 50 energy = -3970.65811045389
LASSCF state 51 energy = -3970.63732598356
LASSCF state 52 energy = -3971.09274209842
LASSCF state 53 energy = -3971.17873749115
LASSCF state 54 energy = -3971.13443746025
LASSCF state 55 energy = -3713.18730853843
LASSCF state 56 energy = -3966.10080235233
LASSCF state 57 energy = -3707.36012607063
LASSCF state 58 energy = -3970.63615825147
LASSCF state 59 energy = -3971.13358608017
LASSCF state 60 energy = -3713.18667862007
LASSCF state 61 energy = -3707.35932694038
LASSI op_o0 memory check: 51.480864 MB needed of 120116.563968 MB available (128000 MB max)
Symmetry analysis of 62 LAS rootspaces:
 ix            Energy  <S**2>  Neleca  Nelecb  Nelec   Wfnsym
  0  -3971.7817202469   4.750       6       5      11       A
  1  -3971.7854420486  11.750       6       5      11       A
  2  -3971.7870371065  14.750       6       5      11       A
  3  -3971.7865054205  13.750       6       5      11       A
  4  -3971.7838469907   8.750       6       5      11       A
  5  -3970.7022373925   3.750       6       5      11       A
  6  -3971.2191048714   3.750       6       5      11       A
  7  -3713.2730041992   8.750       6       5      11       A
  8  -3970.7040562964   8.750       6       5      11       A
  9  -3971.2205759648   8.750       6       5      11       A
 10  -3713.2740322833  13.750       6       5      11       A
 11  -3970.7044585010   9.750       6       5      11       A
 12  -3971.2208907508   9.750       6       5      11       A
 13  -3713.2742431843  14.750       6       5      11       A
 14  -3970.7033090193   6.750       6       5      11       A
 15  -3971.2199753310   6.750       6       5      11       A
 16  -3713.2736169676  11.750       6       5      11       A
 17  -3713.2721981087   4.750       6       5      11       A
 18  -3968.3292218987   2.750       6       5      11       A
 19  -3971.5725561149   2.750       6       5      11       A
 20  -3971.6995457425   7.750       6       5      11       A
 21  -3971.6583235955   6.750       6       5      11       A
 22  -3969.3635170404   2.750       6       5      11       A
 23  -3710.9975879491   6.750       6       5      11       A
 24  -3968.3296052727   5.750       6       5      11       A
 25  -3971.5752945509   5.750       6       5      11       A
 26  -3971.7015716307  10.750       6       5      11       A
 27  -3971.6602562880   9.750       6       5      11       A
 28  -3969.3643455520   5.750       6       5      11       A
 29  -3710.9983235784   9.750       6       5      11       A
 30  -3968.3294767891   4.750       6       5      11       A
 31  -3971.5743630526   4.750       6       5      11       A
 32  -3971.7008924015   9.750       6       5      11       A
 33  -3971.6596092044   8.750       6       5      11       A
 34  -3969.3640613479   4.750       6       5      11       A
 35  -3710.9980767416   8.750       6       5      11       A
 36  -3971.6564194991   3.750       6       5      11       A
 37  -3710.9968639083   3.750       6       5      11       A
 38  -3964.5070048234   1.750       6       5      11       A
 39  -3970.5912714001   1.750       6       5      11       A
 40  -3970.6579452023   5.750       6       5      11       A
 41  -3970.6368958610   4.750       6       5      11       A
 42  -3971.0923638696   1.750       6       5      11       A
 43  -3971.1784382046   5.750       6       5      11       A
 44  -3971.1341468950   4.750       6       5      11       A
 45  -3713.1870960683   9.750       6       5      11       A
 46  -3966.1005693906   1.750       6       5      11       A
 47  -3707.3598538793   4.750       6       5      11       A
 48  -3964.5070931681   2.750       6       5      11       A
 49  -3970.5914725761   2.750       6       5      11       A
 50  -3970.6581104539   6.750       6       5      11       A
 51  -3970.6373259836   5.750       6       5      11       A
 52  -3971.0927420984   2.750       6       5      11       A
 53  -3971.1787374912   6.750       6       5      11       A
 54  -3971.1344374603   5.750       6       5      11       A
 55  -3713.1873085384  10.750       6       5      11       A
 56  -3966.1008023523   2.750       6       5      11       A
 57  -3707.3601260706   5.750       6       5      11       A
 58  -3970.6361582515   2.750       6       5      11       A
 59  -3971.1335860802   2.750       6       5      11       A
 60  -3713.1866786201   7.750       6       5      11       A
 61  -3707.3593269404   2.750       6       5      11       A
Build + diag H matrix LASSI symmetry block 0
['neleca', 'nelecb', 'irrep'] = (6, 5, 0)
(62 rootspaces; 1610 states)
LASSI eigenvalues (1610 total):
 ix            Energy  <S**2>  Neleca  Nelecb  Wfnsym
  0  -3971.7927295453   0.750       6       5       A
  1  -3971.7926894063   3.750       6       5       A
  2  -3971.7926181908   8.750       6       5       A
  3  -3971.7925095206  15.750       6       5       A
  4  -3971.7923539661  24.750       6       5       A
  5  -3971.7065424102  15.750       6       5       A
  6  -3971.7059192357   8.750       6       5       A
  7  -3971.7054590931   3.750       6       5       A
  8  -3971.6897897530  15.750       6       5       A
  9  -3971.6895844099  15.749       6       5       A
 10  -3971.6887465267  15.750       6       5       A
 11  -3971.6879177648   8.748       6       5       A
 12  -3971.6874271573   8.748       6       5       A
 13  -3971.6871560910   3.753       6       5       A
 14  -3971.6866859944   8.750       6       5       A
 15  -3971.6858465889   3.751       6       5       A
 16  -3971.6846728656   3.751       6       5       A
 17  -3971.6654730925  15.749       6       5       A
 18  -3971.6654088936  15.749       6       5       A
 19  -3971.6648978793  15.750       6       5       A
 20  -3971.6638335993   8.750       6       5       A
 21  -3971.6637665329   8.749       6       5       A
 22  -3971.6628895703   8.748       6       5       A
 23  -3971.6626812733   3.751       6       5       A
 24  -3971.6625314049   3.751       6       5       A
 25  -3971.6615119936   3.739       6       5       A
 26  -3971.6606588270   0.763       6       5       A
 27  -3971.6599749657  15.750       6       5       A
 28  -3971.6591292944  15.750       6       5       A
 29  -3971.6568577538   8.749       6       5       A
 30  -3971.6559855216   8.750       6       5       A
 31  -3971.6545663293   3.750       6       5       A
 32  -3971.6536874852   3.749       6       5       A
 33  -3971.6531891909   0.752       6       5       A
 34  -3971.6522789602   0.751       6       5       A
 35  -3971.6418195682  15.748       6       5       A
 36  -3971.6401886653  15.746       6       5       A
 37  -3971.6385457481   8.748       6       5       A
 38  -3971.6379486491  15.701       6       5       A
 39  -3971.6369841369   8.744       6       5       A
 40  -3971.6362109711   3.750       6       5       A
 41  -3971.6347775526   0.767       6       5       A
 42  -3971.6347117289   3.744       6       5       A
 43  -3971.6341787095   8.673       6       5       A
 44  -3971.6333143116   0.759       6       5       A
 45  -3971.6315854914   3.768       6       5       A
 46  -3971.6299596890   0.851       6       5       A
 47  -3971.5788050558   8.750       6       5       A
 48  -3971.5765556969   3.750       6       5       A
 49  -3971.5752610937   0.750       6       5       A
 50  -3971.5737510280   8.750       6       5       A
 51  -3971.5727775204   8.750       6       5       A
 52  -3971.5703427092   3.750       6       5       A
 53  -3971.5695989078   3.750       6       5       A
 54  -3971.5683538006   0.750       6       5       A
 55  -3971.5677305458   0.750       6       5       A
 56  -3971.5616807840   8.749       6       5       A
 57  -3971.5614690890   8.749       6       5       A
 58  -3971.5607218468   8.750       6       5       A
 59  -3971.5596312237   3.749       6       5       A
 60  -3971.5590695130   3.750       6       5       A
 61  -3971.5584746128   0.753       6       5       A
 62  -3971.5583484074   3.747       6       5       A
 63  -3971.5579781955   0.750       6       5       A
 64  -3971.5566832514   0.752       6       5       A
 65  -3971.5562558248   8.749       6       5       A
 66  -3971.5561225103   8.749       6       5       A
 67  -3971.5554901723   8.750       6       5       A
 68  -3971.5552294634   8.748       6       5       A
 69  -3971.5550599359   8.749       6       5       A
 70  -3971.5549360737   8.749       6       5       A
 71  -3971.5544833780   8.750       6       5       A
 72  -3971.5538707732   3.750       6       5       A
 73  -3971.5535879280   8.747       6       5       A
 74  -3971.5532485375   3.750       6       5       A
 75  -3971.5529697986   3.750       6       5       A
 76  -3971.5525844692   3.747       6       5       A
 77  -3971.5525669699   0.755       6       5       A
 78  -3971.5520211095   3.750       6       5       A
 79  -3971.5518958898   0.761       6       5       A
 80  -3971.5518377498   3.740       6       5       A
 81  -3971.5515618637   0.763       6       5       A
 82  -3971.5514485163   8.691       6       5       A
 83  -3971.5512105136   0.760       6       5       A
 84  -3971.5510872356   3.748       6       5       A
 85  -3971.5504156983   3.747       6       5       A
 86  -3971.5501544480   0.753       6       5       A
 87  -3971.5497253484   0.752       6       5       A
 88  -3971.5490735335   0.751       6       5       A
 89  -3971.5485242329   0.754       6       5       A
 90  -3971.5477060294   3.728       6       5       A
 91  -3971.5455949157   0.811       6       5       A
 92  -3971.5378324084   8.747       6       5       A
 93  -3971.5376407724   8.747       6       5       A
 94  -3971.5371473949   8.748       6       5       A
 95  -3971.5367241530   8.747       6       5       A
 96  -3971.5366342669   8.749       6       5       A
 97  -3971.5362441921   8.747       6       5       A
 98  -3971.5359264762   8.745       6       5       A
 99  -3971.5357923083   3.750       6       5       A
Remaining 1510 eigenvalues truncated; increase verbosity to print them all
