#INFO: **** input file is /project/lgagliardi/valayagarawal/lasscf/mof_nodes/Al_Fe_Fe/production/10_11/lassi_r3_n2.py ****
import numpy as np
import sys
from pyscf import gto, scf, tools,lib, mcscf
from pyscf.mcscf import avas,project_init_guess
from pyscf import mcscf
from mrh.my_pyscf.tools import molden
from mrh.my_pyscf.mcscf import lasscf_async as asyn
mol_name='Al_Fe_Fe.xyz' # Al-Fe-Fe MOF node
basis={'C': 'cc-pvdz','H': 'cc-pvdz','O': 'cc-pvtz','Al': 'cc-pvtz','Fe': 'cc-pvtz'}
r=3;n=2
output='r'+str(r)+'_n'+str(n)+'.log'
mol=gto.M(atom=mol_name,verbose=4,spin=9,charge=0,basis=basis, output=output) #spin = 2S
mf=scf.RHF(mol)
mf=mf.density_fit()
mf.max_cycle=1
mf.kernel()
mf.mo_coeff=np.load('hf.npy')

mo_guess=np.load('las_10_11.npy')
las=asyn.LASSCF(mf,(5,5),((1,5),(5,0)),spin_sub=(5,6),verbose=4) # spin is 2S+1
las.set_fragments_(([17],[19]),mo_guess)
las.mo_coeff=mo_guess
from mrh.my_pyscf.lassi import states
las=states.spin_shuffle(las)
for _ in range(r):
	las=states.all_single_excitations(las)
ncsf=las.get_ugg().ncsf_sub
lroots=np.minimum(n,ncsf)
las.lasci()
las.lasci(lroots=lroots)
e_roots, si= las.lassi(opt=1)
#INFO: ******************** input file end ********************


System: uname_result(system='Linux', node='midway3-0308.rcc.local', release='4.18.0-305.3.1.el8.x86_64', version='#1 SMP Tue Jun 1 16:14:33 UTC 2021', machine='x86_64')  Threads 16
Python 3.9.12 (main, Apr  5 2022, 06:56:58) 
[GCC 7.5.0]
numpy 1.25.0  scipy 1.7.3
Date: Wed Feb 21 09:31:07 2024
PySCF version 2.5.0
PySCF path  /project/lgagliardi/shared/Apps/pyscf
GIT ORIG_HEAD 0bc590ffddec98eec5d2513a3d85274b7a791bc6
GIT HEAD (branch master) 6f8ce439fbe0c26ec4d226e2225b28c7f668f922

[ENV] PYSCF_MAX_MEMORY 128000
[CONFIG] conf_file /home/valayagarawal/.pyscf_conf.py
[INPUT] verbose = 4
[INPUT] num. atoms = 28
[INPUT] num. electrons = 211
[INPUT] charge = 0
[INPUT] spin (= nelec alpha-beta = 2S) = 9
[INPUT] symmetry False subgroup None
[INPUT] Mole.unit = angstrom
[INPUT] Symbol           X                Y                Z      unit          X                Y                Z       unit  Magmom
[INPUT]  1 O     -2.220198244100   0.399190300300   1.694471698900 AA   -4.195566623589   0.754360339150   3.202087436747 Bohr   0.0
[INPUT]  2 O     -1.685553244600  -1.782306321700   1.431399507200 AA   -3.185234000666  -3.368070818094   2.704953043445 Bohr   0.0
[INPUT]  3 C     -2.268517865100  -0.831955037900   1.983951274000 AA   -4.286877473722  -1.572167169583   3.749124552342 Bohr   0.0
[INPUT]  4 H     -2.913342016700  -1.076728588500   2.843786805300 AA   -5.505418518751  -2.034722142755   5.373978218669 Bohr   0.0
[INPUT]  5 O      1.388288080900   2.079556156200  -1.347085675300 AA    2.623484254899   3.929791595871  -2.545622992642 Bohr   0.0
[INPUT]  6 O     -0.759908859500   2.580923634700  -0.849227704000 AA   -1.436019624086   4.877238818000  -1.604807777953 Bohr   0.0
[INPUT]  7 C      0.346567468600   2.753895325000  -1.438835699000 AA    0.654917599338   5.204107939970  -2.719005409357 Bohr   0.0
[INPUT]  8 H      0.372379614500   3.617699659800  -2.123091150300 AA    0.703695485776   6.836461557954  -4.012060811555 Bohr   0.0
[INPUT]  9 O      1.046960908100  -2.642534200000   0.961324672200 AA    1.978469379435  -4.993665912797   1.816640347245 Bohr   0.0
[INPUT] 10 O     -0.399190300300   2.220198244100   1.694471698900 AA   -0.754360339150   4.195566623589   3.202087436747 Bohr   0.0
[INPUT] 11 O      1.782306321700   1.685553244600   1.431399507200 AA    3.368070818094   3.185234000666   2.704953043445 Bohr   0.0
[INPUT] 12 C      0.831955037900   2.268517865100   1.983951274000 AA    1.572167169583   4.286877473722   3.749124552342 Bohr   0.0
[INPUT] 13 H      1.076728588500   2.913342016700   2.843786805300 AA    2.034722142755   5.505418518751   5.373978218669 Bohr   0.0
[INPUT] 14 O     -2.079556156200  -1.388288080900  -1.347085675300 AA   -3.929791595871  -2.623484254899  -2.545622992642 Bohr   0.0
[INPUT] 15 O     -2.580923634700   0.759908859500  -0.849227704000 AA   -4.877238818000   1.436019624086  -1.604807777953 Bohr   0.0
[INPUT] 16 C     -2.753895325000  -0.346567468600  -1.438835699000 AA   -5.204107939970  -0.654917599338  -2.719005409357 Bohr   0.0
[INPUT] 17 H     -3.617699659800  -0.372379614500  -2.123091150300 AA   -6.836461557954  -0.703695485776  -4.012060811555 Bohr   0.0
[INPUT] 18 Fe    -0.379874189300  -1.792603362900  -0.200337730300 AA   -0.717858179568  -3.387529405855  -0.378583442684 Bohr   0.0
[INPUT] 19 O      0.642223180300  -2.237796553000  -1.892914517600 AA    1.213625921614  -4.228822607666  -3.577090015477 Bohr   0.0
[INPUT] 20 Fe     1.792603362900   0.379874189300  -0.200337730300 AA    3.387529405855   0.717858179568  -0.378583442684 Bohr   0.0
[INPUT] 21 O      2.237796553000  -0.642223180300  -1.892914517600 AA    4.228822607666  -1.213625921614  -3.577090015477 Bohr   0.0
[INPUT] 22 O      2.642534200000  -1.046960908100   0.961324672200 AA    4.993665912797  -1.978469379435   1.816640347245 Bohr   0.0
[INPUT] 23 Al    -1.236271642100   1.236271642100   0.350650148000 AA   -2.336214819135   2.336214819135   0.662632745258 Bohr   0.0
[INPUT] 24 O     -0.044950195400   0.044950195400   0.012762141300 AA   -0.084943558552   0.084943558552   0.024116951820 Bohr   0.0
[INPUT] 25 C      1.645528685000  -1.645528685000  -2.357112465400 AA    3.109598544766  -3.109598544766  -4.454297004404 Bohr   0.0
[INPUT] 26 H      2.056906298400  -2.056906298400  -3.294571291600 AA    3.886989567869  -3.886989567869  -6.225837438979 Bohr   0.0
[INPUT] 27 C      2.160924281100  -2.160924281100   1.277584186800 AA    4.083555067202  -4.083555067202   2.414284214127 Bohr   0.0
[INPUT] 28 H      2.796080543300  -2.796080543300   1.918244302400 AA    5.283826449062  -5.283826449062   3.624956371543 Bohr   0.0

nuclear repulsion = 3455.30471244119
number of shells = 192
number of NR pGTOs = 1065
number of NR cGTOs = 674
basis = {'C': 'cc-pvdz', 'H': 'cc-pvdz', 'O': 'cc-pvtz', 'Al': 'cc-pvtz', 'Fe': 'cc-pvtz'}
ecp = {}
CPU time:         1.72


******** <class 'pyscf.df.df_jk.DFROHF'> ********
method = DFROHF
initial guess = minao
damping factor = 0
level_shift factor = 0
DIIS = <class 'pyscf.scf.diis.CDIIS'>
diis_start_cycle = 1
diis_space = 8
diis_damp = 0
SCF conv_tol = 1e-09
SCF conv_tol_grad = None
SCF max_cycles = 1
direct_scf = False
chkfile to save SCF result = /scratch/local/jobs/17682933/tmpah_8088t
max_memory 128000 MB (current use 76 MB)
num. doubly occ = 101  num. singly occ = 9
Set gradient conv threshold to 3.16228e-05
******** <class 'pyscf.df.df.DF'> ********
auxbasis = None
max_memory = 128000
Even tempered Gaussians are generated as DF auxbasis for  Fe Al H O C
init E= -3971.90238344316
  HOMO = 0.121056952198207  LUMO = 0.123678658553649
cycle= 1 E= -3943.04990514114  delta_E= 28.9  |g|= 9.05  |ddm|=   34
SCF not converged.
SCF energy = -3943.04990514114
Built 4 spin(local Sz)-shuffled LAS states from 1 reference LAS states
Built 13 singly-excited LAS states from 5 reference LAS states
Built 20 singly-excited LAS states from 18 reference LAS states
Built 24 singly-excited LAS states from 38 reference LAS states
Entering product-state fixed-point CI iteration
Cycle 0: max grad = 2.613888e-03 ; sigma = 0.000000e+00
Cycle 1: max grad = 1.136868e-13 ; sigma = 2.656714e-08
Cycle 2: max grad = 1.136868e-13 ; sigma = 1.136868e-13
Product_state fixed-point CI iteration converged after 2 cycles
Entering product-state fixed-point CI iteration
Cycle 0: max grad = 2.600930e-03 ; sigma = 0.000000e+00
Cycle 1: max grad = 3.972194e-16 ; sigma = 2.627428e-08
Cycle 2: max grad = 3.972194e-16 ; sigma = 2.273737e-13
Product_state fixed-point CI iteration converged after 2 cycles
Entering product-state fixed-point CI iteration
Cycle 0: max grad = 2.595377e-03 ; sigma = 0.000000e+00
Cycle 1: max grad = 2.808667e-15 ; sigma = 2.615354e-08
Cycle 2: max grad = 2.808667e-15 ; sigma = 4.547474e-13
Product_state fixed-point CI iteration converged after 2 cycles
Entering product-state fixed-point CI iteration
Cycle 0: max grad = 2.597228e-03 ; sigma = 0.000000e+00
Cycle 1: max grad = 2.808618e-16 ; sigma = 2.619356e-08
Cycle 2: max grad = 2.808618e-16 ; sigma = 1.136868e-13
Product_state fixed-point CI iteration converged after 2 cycles
Entering product-state fixed-point CI iteration
Cycle 0: max grad = 2.606484e-03 ; sigma = 0.000000e+00
Cycle 1: max grad = 3.972066e-16 ; sigma = 2.639820e-08
Cycle 2: max grad = 3.972066e-16 ; sigma = 1.136868e-13
Product_state fixed-point CI iteration converged after 2 cycles
Entering product-state fixed-point CI iteration
Cycle 0: max grad = 2.082574e-02 ; sigma = 0.000000e+00
Cycle 1: max grad = 1.752441e-04 ; sigma = 1.511821e-02
Cycle 2: max grad = 8.314607e-06 ; sigma = 3.871799e-06
Cycle 3: max grad = 8.554991e-08 ; sigma = 1.609692e-09
Cycle 4: max grad = 5.028167e-09 ; sigma = 2.273737e-13
Product_state fixed-point CI iteration converged after 4 cycles
Entering product-state fixed-point CI iteration
Cycle 0: max grad = 1.092801e-02 ; sigma = 0.000000e+00
Cycle 1: max grad = 8.960273e-04 ; sigma = 2.684367e-03
Cycle 2: max grad = 3.426537e-05 ; sigma = 1.441322e-05
Cycle 3: max grad = 1.019853e-06 ; sigma = 5.256732e-08
Cycle 4: max grad = 5.580140e-08 ; sigma = 9.163159e-11
Product_state fixed-point CI iteration converged after 4 cycles
Entering product-state fixed-point CI iteration
Cycle 0: max grad = 4.702213e-03 ; sigma = 0.000000e+00
Cycle 1: max grad = 5.084229e-14 ; sigma = 9.487285e-03
Cycle 2: max grad = 5.084229e-14 ; sigma = 0.000000e+00
Product_state fixed-point CI iteration converged after 2 cycles
Entering product-state fixed-point CI iteration
Cycle 0: max grad = 2.085785e-02 ; sigma = 0.000000e+00
Cycle 1: max grad = 1.524495e-04 ; sigma = 1.523050e-02
Cycle 2: max grad = 8.946919e-06 ; sigma = 1.781592e-05
Cycle 3: max grad = 4.057189e-08 ; sigma = 1.813305e-09
Cycle 4: max grad = 1.351878e-09 ; sigma = 1.477929e-12
Product_state fixed-point CI iteration converged after 4 cycles
Entering product-state fixed-point CI iteration
Cycle 0: max grad = 1.126303e-02 ; sigma = 0.000000e+00
Cycle 1: max grad = 4.072857e-04 ; sigma = 5.171691e-03
Cycle 2: max grad = 6.887223e-06 ; sigma = 7.383263e-06
Cycle 3: max grad = 9.055680e-08 ; sigma = 2.225306e-09
Cycle 4: max grad = 2.613753e-09 ; sigma = 1.250555e-12
Product_state fixed-point CI iteration converged after 4 cycles
Entering product-state fixed-point CI iteration
Cycle 0: max grad = 4.625156e-03 ; sigma = 0.000000e+00
Cycle 1: max grad = 4.493873e-15 ; sigma = 8.123216e-03
Cycle 2: max grad = 4.493873e-15 ; sigma = 0.000000e+00
Product_state fixed-point CI iteration converged after 2 cycles
Entering product-state fixed-point CI iteration
Cycle 0: max grad = 2.086427e-02 ; sigma = 0.000000e+00
Cycle 1: max grad = 1.534412e-04 ; sigma = 1.518602e-02
Cycle 2: max grad = 1.061299e-05 ; sigma = 2.708721e-05
Cycle 3: max grad = 1.402401e-08 ; sigma = 2.640377e-09
Cycle 4: max grad = 7.856952e-10 ; sigma = 6.821210e-13
Product_state fixed-point CI iteration converged after 4 cycles
Entering product-state fixed-point CI iteration
Cycle 0: max grad = 1.133004e-02 ; sigma = 0.000000e+00
Cycle 1: max grad = 3.215621e-04 ; sigma = 5.649119e-03
Cycle 2: max grad = 6.380793e-06 ; sigma = 8.362927e-06
Cycle 3: max grad = 6.784533e-08 ; sigma = 1.944045e-10
Cycle 4: max grad = 1.186503e-09 ; sigma = 2.614797e-12
Product_state fixed-point CI iteration converged after 4 cycles
Entering product-state fixed-point CI iteration
Cycle 0: max grad = 4.609744e-03 ; sigma = 0.000000e+00
Cycle 1: max grad = 3.595093e-14 ; sigma = 7.855686e-03
Cycle 2: max grad = 3.595093e-14 ; sigma = 0.000000e+00
Product_state fixed-point CI iteration converged after 2 cycles
Entering product-state fixed-point CI iteration
Cycle 0: max grad = 2.084501e-02 ; sigma = 0.000000e+00
Cycle 1: max grad = 1.546878e-04 ; sigma = 1.521806e-02
Cycle 2: max grad = 9.390878e-06 ; sigma = 7.933866e-06
Cycle 3: max grad = 6.681693e-08 ; sigma = 1.951776e-09
Cycle 4: max grad = 3.111701e-09 ; sigma = 2.273737e-13
Product_state fixed-point CI iteration converged after 4 cycles
Entering product-state fixed-point CI iteration
Cycle 0: max grad = 1.112902e-02 ; sigma = 0.000000e+00
Cycle 1: max grad = 5.869092e-04 ; sigma = 4.186383e-03
Cycle 2: max grad = 1.463911e-05 ; sigma = 2.259470e-06
Cycle 3: max grad = 3.033465e-07 ; sigma = 9.987502e-09
Cycle 4: max grad = 1.143685e-08 ; sigma = 6.707523e-12
Product_state fixed-point CI iteration converged after 4 cycles
Entering product-state fixed-point CI iteration
Cycle 0: max grad = 4.655979e-03 ; sigma = 0.000000e+00
Cycle 1: max grad = 2.542115e-14 ; sigma = 8.664761e-03
Cycle 2: max grad = 2.542115e-14 ; sigma = 0.000000e+00
Product_state fixed-point CI iteration converged after 2 cycles
Entering product-state fixed-point CI iteration
Cycle 0: max grad = 4.763859e-03 ; sigma = 0.000000e+00
Cycle 1: max grad = 1.776357e-15 ; sigma = 1.059492e-02
Cycle 2: max grad = 2.220446e-15 ; sigma = 1.136868e-13
Product_state fixed-point CI iteration converged after 2 cycles
Entering product-state fixed-point CI iteration
Cycle 0: max grad = 5.142736e-02 ; sigma = 0.000000e+00
Cycle 1: max grad = 1.129622e-04 ; sigma = 3.090202e-02
Cycle 2: max grad = 3.713231e-06 ; sigma = 2.679245e-07
Cycle 3: max grad = 9.091913e-08 ; sigma = 2.528395e-10
Cycle 4: max grad = 3.841524e-09 ; sigma = 3.410605e-13
Product_state fixed-point CI iteration converged after 4 cycles
Entering product-state fixed-point CI iteration
Cycle 0: max grad = 3.555833e-02 ; sigma = 0.000000e+00
Cycle 1: max grad = 3.767608e-04 ; sigma = 1.459558e-02
Cycle 2: max grad = 8.141186e-06 ; sigma = 3.151705e-06
Cycle 3: max grad = 1.888227e-07 ; sigma = 1.085482e-09
Cycle 4: max grad = 4.056190e-09 ; sigma = 7.958079e-13
Product_state fixed-point CI iteration converged after 4 cycles
Entering product-state fixed-point CI iteration
Cycle 0: max grad = 3.555833e-02 ; sigma = 0.000000e+00
Cycle 1: max grad = 1.717388e-13 ; sigma = 4.440074e-02
Cycle 2: max grad = 3.207135e-13 ; sigma = 2.273737e-13
Product_state fixed-point CI iteration converged after 2 cycles
Entering product-state fixed-point CI iteration
Cycle 0: max grad = 2.656898e-02 ; sigma = 0.000000e+00
Cycle 1: max grad = 3.192986e-05 ; sigma = 2.940541e-02
Cycle 2: max grad = 1.902312e-11 ; sigma = 8.640200e-12
Product_state fixed-point CI iteration converged after 2 cycles
Entering product-state fixed-point CI iteration
Cycle 0: max grad = 4.376381e-02 ; sigma = 0.000000e+00
Cycle 1: max grad = 6.944395e-04 ; sigma = 2.700074e-02
Cycle 2: max grad = 4.789258e-05 ; sigma = 1.585923e-05
Cycle 3: max grad = 3.148958e-06 ; sigma = 1.439957e-09
Cycle 4: max grad = 2.065773e-07 ; sigma = 2.955858e-12
Product_state fixed-point CI iteration converged after 4 cycles
Entering product-state fixed-point CI iteration
Cycle 0: max grad = 2.318672e-02 ; sigma = 0.000000e+00
Cycle 1: max grad = 2.880487e-04 ; sigma = 6.867998e-03
Cycle 2: max grad = 3.511076e-06 ; sigma = 2.970197e-06
Cycle 3: max grad = 1.304550e-07 ; sigma = 1.933017e-09
Cycle 4: max grad = 2.071975e-09 ; sigma = 1.250555e-12
Product_state fixed-point CI iteration converged after 4 cycles
Entering product-state fixed-point CI iteration
Cycle 0: max grad = 5.140563e-02 ; sigma = 0.000000e+00
Cycle 1: max grad = 6.843956e-05 ; sigma = 3.093134e-02
Cycle 2: max grad = 9.193868e-07 ; sigma = 7.834763e-08
Cycle 3: max grad = 1.063445e-08 ; sigma = 2.091838e-11
Product_state fixed-point CI iteration converged after 3 cycles
Entering product-state fixed-point CI iteration
Cycle 0: max grad = 3.555833e-02 ; sigma = 0.000000e+00
Cycle 1: max grad = 3.695577e-04 ; sigma = 1.605338e-02
Cycle 2: max grad = 1.430375e-05 ; sigma = 2.266874e-05
Cycle 3: max grad = 2.446407e-07 ; sigma = 1.945648e-08
Cycle 4: max grad = 1.497863e-08 ; sigma = 1.671197e-11
Product_state fixed-point CI iteration converged after 4 cycles
Entering product-state fixed-point CI iteration
Cycle 0: max grad = 3.555833e-02 ; sigma = 0.000000e+00
Cycle 1: max grad = 2.706820e-13 ; sigma = 4.562101e-02
Cycle 2: max grad = 1.720457e-13 ; sigma = 5.684342e-13
Product_state fixed-point CI iteration converged after 2 cycles
Entering product-state fixed-point CI iteration
Cycle 0: max grad = 2.656898e-02 ; sigma = 0.000000e+00
Cycle 1: max grad = 2.176376e-05 ; sigma = 2.967549e-02
Cycle 2: max grad = 5.046912e-12 ; sigma = 3.069545e-12
Product_state fixed-point CI iteration converged after 2 cycles
Entering product-state fixed-point CI iteration
Cycle 0: max grad = 4.355731e-02 ; sigma = 0.000000e+00
Cycle 1: max grad = 2.913052e-04 ; sigma = 2.725575e-02
Cycle 2: max grad = 1.774865e-05 ; sigma = 8.507922e-06
Cycle 3: max grad = 5.062328e-07 ; sigma = 7.536528e-09
Cycle 4: max grad = 2.973554e-08 ; sigma = 1.409717e-11
Product_state fixed-point CI iteration converged after 4 cycles
Entering product-state fixed-point CI iteration
Cycle 0: max grad = 2.308347e-02 ; sigma = 0.000000e+00
Cycle 1: max grad = 1.779705e-04 ; sigma = 7.502363e-03
Cycle 2: max grad = 1.401723e-06 ; sigma = 5.954336e-07
Cycle 3: max grad = 4.250730e-08 ; sigma = 3.269633e-10
Cycle 4: max grad = 4.082150e-10 ; sigma = 2.842171e-13
Product_state fixed-point CI iteration converged after 4 cycles
Entering product-state fixed-point CI iteration
Cycle 0: max grad = 5.141287e-02 ; sigma = 0.000000e+00
Cycle 1: max grad = 8.378726e-05 ; sigma = 3.092170e-02
Cycle 2: max grad = 1.671846e-06 ; sigma = 1.524127e-07
Cycle 3: max grad = 2.668624e-08 ; sigma = 6.718892e-11
Product_state fixed-point CI iteration converged after 3 cycles
Entering product-state fixed-point CI iteration
Cycle 0: max grad = 3.555833e-02 ; sigma = 0.000000e+00
Cycle 1: max grad = 2.416661e-04 ; sigma = 1.556274e-02
Cycle 2: max grad = 1.005245e-05 ; sigma = 1.100901e-05
Cycle 3: max grad = 1.152538e-07 ; sigma = 6.416371e-09
Cycle 4: max grad = 7.899963e-09 ; sigma = 4.092726e-12
Product_state fixed-point CI iteration converged after 4 cycles
Entering product-state fixed-point CI iteration
Cycle 0: max grad = 3.555833e-02 ; sigma = 0.000000e+00
Cycle 1: max grad = 2.483912e-13 ; sigma = 4.521032e-02
Cycle 2: max grad = 2.814863e-13 ; sigma = 1.136868e-13
Product_state fixed-point CI iteration converged after 2 cycles
Entering product-state fixed-point CI iteration
Cycle 0: max grad = 2.656898e-02 ; sigma = 0.000000e+00
Cycle 1: max grad = 2.521689e-05 ; sigma = 2.958261e-02
Cycle 2: max grad = 8.834026e-12 ; sigma = 4.320100e-12
Product_state fixed-point CI iteration converged after 2 cycles
Entering product-state fixed-point CI iteration
Cycle 0: max grad = 4.362614e-02 ; sigma = 0.000000e+00
Cycle 1: max grad = 4.246956e-04 ; sigma = 2.717818e-02
Cycle 2: max grad = 2.768951e-05 ; sigma = 1.208332e-05
Cycle 3: max grad = 1.142435e-06 ; sigma = 1.251624e-08
Cycle 4: max grad = 7.143464e-08 ; sigma = 3.308287e-11
Product_state fixed-point CI iteration converged after 4 cycles
Entering product-state fixed-point CI iteration
Cycle 0: max grad = 2.311789e-02 ; sigma = 0.000000e+00
Cycle 1: max grad = 2.138311e-04 ; sigma = 7.292379e-03
Cycle 2: max grad = 1.989230e-06 ; sigma = 1.247735e-06
Cycle 3: max grad = 6.541577e-08 ; sigma = 6.572805e-10
Cycle 4: max grad = 7.613320e-10 ; sigma = 1.136868e-13
Product_state fixed-point CI iteration converged after 4 cycles
Entering product-state fixed-point CI iteration
Cycle 0: max grad = 2.656898e-02 ; sigma = 0.000000e+00
Cycle 1: max grad = 4.399173e-05 ; sigma = 2.916392e-02
Cycle 2: max grad = 4.149836e-11 ; sigma = 2.125944e-11
Product_state fixed-point CI iteration converged after 2 cycles
Entering product-state fixed-point CI iteration
Cycle 0: max grad = 2.328997e-02 ; sigma = 0.000000e+00
Cycle 1: max grad = 4.053133e-04 ; sigma = 6.223736e-03
Cycle 2: max grad = 6.742216e-06 ; sigma = 6.748022e-06
Cycle 3: max grad = 2.863993e-07 ; sigma = 6.421203e-09
Cycle 4: max grad = 6.481096e-09 ; sigma = 6.025402e-12
Product_state fixed-point CI iteration converged after 4 cycles
Entering product-state fixed-point CI iteration
Cycle 0: max grad = 3.497920e-02 ; sigma = 0.000000e+00
Cycle 1: max grad = 1.846025e-04 ; sigma = 1.522279e-03
Cycle 2: max grad = 2.205055e-06 ; sigma = 1.379033e-06
Cycle 3: max grad = 2.116973e-08 ; sigma = 1.629132e-10
Cycle 4: max grad = 3.614282e-10 ; sigma = 2.273737e-13
Product_state fixed-point CI iteration converged after 4 cycles
Entering product-state fixed-point CI iteration
Cycle 0: max grad = 4.077821e-02 ; sigma = 0.000000e+00
Cycle 1: max grad = 2.202720e-04 ; sigma = 1.140440e-02
Cycle 2: max grad = 2.730168e-06 ; sigma = 1.017930e-06
Cycle 3: max grad = 1.329046e-07 ; sigma = 4.895355e-10
Cycle 4: max grad = 2.667209e-09 ; sigma = 3.410605e-13
Product_state fixed-point CI iteration converged after 4 cycles
Entering product-state fixed-point CI iteration
Cycle 0: max grad = 3.103895e-02 ; sigma = 0.000000e+00
Cycle 1: max grad = 9.759462e-05 ; sigma = 3.642824e-02
Cycle 2: max grad = 1.818410e-07 ; sigma = 4.243717e-07
Cycle 3: max grad = 1.255946e-09 ; sigma = 9.094947e-13
Product_state fixed-point CI iteration converged after 3 cycles
Entering product-state fixed-point CI iteration
Cycle 0: max grad = 4.086785e-02 ; sigma = 0.000000e+00
Cycle 1: max grad = 1.535786e-04 ; sigma = 6.346561e-02
Cycle 2: max grad = 1.516274e-05 ; sigma = 1.944508e-05
Cycle 3: max grad = 1.589741e-06 ; sigma = 6.990308e-08
Cycle 4: max grad = 6.829460e-08 ; sigma = 3.176410e-10
Cycle 5: max grad = 7.307880e-09 ; sigma = 2.728484e-12
Product_state fixed-point CI iteration converged after 5 cycles
Entering product-state fixed-point CI iteration
Cycle 0: max grad = 4.513273e-02 ; sigma = 0.000000e+00
Cycle 1: max grad = 3.856744e-04 ; sigma = 3.118278e-02
Cycle 2: max grad = 2.412779e-05 ; sigma = 3.044276e-05
Cycle 3: max grad = 1.023157e-06 ; sigma = 5.250968e-08
Cycle 4: max grad = 4.839997e-08 ; sigma = 1.026592e-10
Cycle 5: max grad = 2.488894e-09 ; sigma = 1.136868e-13
Product_state fixed-point CI iteration converged after 5 cycles
Entering product-state fixed-point CI iteration
Cycle 0: max grad = 4.506502e-02 ; sigma = 0.000000e+00
Cycle 1: max grad = 5.940585e-04 ; sigma = 7.124206e-02
Cycle 2: max grad = 1.911303e-05 ; sigma = 1.594766e-05
Cycle 3: max grad = 3.032054e-06 ; sigma = 9.976486e-08
Cycle 4: max grad = 1.394426e-07 ; sigma = 7.803465e-10
Cycle 5: max grad = 2.300549e-08 ; sigma = 5.798029e-12
Product_state fixed-point CI iteration converged after 5 cycles
Entering product-state fixed-point CI iteration
Cycle 0: max grad = 3.135957e-02 ; sigma = 0.000000e+00
Cycle 1: max grad = 1.521807e-04 ; sigma = 3.549707e-02
Cycle 2: max grad = 8.917296e-06 ; sigma = 7.066226e-06
Cycle 3: max grad = 1.476451e-07 ; sigma = 4.896037e-09
Cycle 4: max grad = 1.807270e-08 ; sigma = 1.261924e-11
Product_state fixed-point CI iteration converged after 4 cycles
Entering product-state fixed-point CI iteration
Cycle 0: max grad = 3.135957e-02 ; sigma = 0.000000e+00
Cycle 1: max grad = 2.696320e-14 ; sigma = 4.748174e-02
Cycle 2: max grad = 2.696320e-14 ; sigma = 0.000000e+00
Product_state fixed-point CI iteration converged after 2 cycles
Entering product-state fixed-point CI iteration
Cycle 0: max grad = 2.765486e-02 ; sigma = 0.000000e+00
Cycle 1: max grad = 1.253040e-03 ; sigma = 2.135280e-02
Cycle 2: max grad = 2.425291e-05 ; sigma = 6.642518e-05
Cycle 3: max grad = 2.604843e-06 ; sigma = 5.840911e-08
Cycle 4: max grad = 1.252198e-07 ; sigma = 3.276455e-10
Cycle 5: max grad = 1.340797e-08 ; sigma = 2.501110e-12
Product_state fixed-point CI iteration converged after 5 cycles
Entering product-state fixed-point CI iteration
Cycle 0: max grad = 4.559558e-02 ; sigma = 0.000000e+00
Cycle 1: max grad = 4.004723e-04 ; sigma = 4.020617e-02
Cycle 2: max grad = 1.790719e-05 ; sigma = 2.382672e-05
Cycle 3: max grad = 3.414500e-07 ; sigma = 6.700304e-09
Cycle 4: max grad = 1.423134e-08 ; sigma = 5.400125e-12
Product_state fixed-point CI iteration converged after 4 cycles
Entering product-state fixed-point CI iteration
Cycle 0: max grad = 3.497722e-02 ; sigma = 0.000000e+00
Cycle 1: max grad = 8.419678e-05 ; sigma = 1.509569e-03
Cycle 2: max grad = 5.276051e-07 ; sigma = 3.038526e-07
Cycle 3: max grad = 2.325377e-09 ; sigma = 8.640200e-12
Product_state fixed-point CI iteration converged after 3 cycles
Entering product-state fixed-point CI iteration
Cycle 0: max grad = 4.088732e-02 ; sigma = 0.000000e+00
Cycle 1: max grad = 2.315659e-04 ; sigma = 1.159313e-02
Cycle 2: max grad = 3.804478e-06 ; sigma = 2.962230e-07
Cycle 3: max grad = 5.520846e-08 ; sigma = 5.651373e-10
Cycle 4: max grad = 4.613610e-09 ; sigma = 7.958079e-13
Product_state fixed-point CI iteration converged after 4 cycles
Entering product-state fixed-point CI iteration
Cycle 0: max grad = 3.104331e-02 ; sigma = 0.000000e+00
Cycle 1: max grad = 8.441299e-05 ; sigma = 3.627529e-02
Cycle 2: max grad = 3.376338e-07 ; sigma = 4.877114e-07
Cycle 3: max grad = 2.816780e-09 ; sigma = 3.410605e-12
Product_state fixed-point CI iteration converged after 3 cycles
Entering product-state fixed-point CI iteration
Cycle 0: max grad = 4.088732e-02 ; sigma = 0.000000e+00
Cycle 1: max grad = 2.763433e-04 ; sigma = 6.350623e-02
Cycle 2: max grad = 5.291008e-05 ; sigma = 8.804131e-05
Cycle 3: max grad = 2.967388e-06 ; sigma = 7.513027e-07
Cycle 4: max grad = 6.183862e-07 ; sigma = 7.883614e-09
Cycle 5: max grad = 2.684207e-08 ; sigma = 9.072210e-11
Product_state fixed-point CI iteration converged after 5 cycles
Entering product-state fixed-point CI iteration
Cycle 0: max grad = 4.501704e-02 ; sigma = 0.000000e+00
Cycle 1: max grad = 2.663458e-04 ; sigma = 3.197645e-02
Cycle 2: max grad = 2.120715e-05 ; sigma = 1.759039e-05
Cycle 3: max grad = 2.059874e-06 ; sigma = 3.553089e-08
Cycle 4: max grad = 2.994793e-07 ; sigma = 4.341700e-10
Cycle 5: max grad = 2.916103e-08 ; sigma = 6.707523e-12
Product_state fixed-point CI iteration converged after 5 cycles
Entering product-state fixed-point CI iteration
Cycle 0: max grad = 4.497005e-02 ; sigma = 0.000000e+00
Cycle 1: max grad = 3.959127e-04 ; sigma = 7.241488e-02
Cycle 2: max grad = 8.295760e-05 ; sigma = 3.688669e-05
Cycle 3: max grad = 5.940956e-06 ; sigma = 1.278974e-06
Cycle 4: max grad = 2.670983e-06 ; sigma = 3.749062e-08
Cycle 5: max grad = 1.748518e-07 ; sigma = 1.085027e-09
Cycle 6: max grad = 7.754188e-08 ; sigma = 3.058176e-11
Product_state fixed-point CI iteration converged after 6 cycles
Entering product-state fixed-point CI iteration
Cycle 0: max grad = 3.135957e-02 ; sigma = 0.000000e+00
Cycle 1: max grad = 1.192357e-04 ; sigma = 3.516942e-02
Cycle 2: max grad = 6.190899e-06 ; sigma = 4.974860e-06
Cycle 3: max grad = 9.972677e-08 ; sigma = 3.105129e-09
Cycle 4: max grad = 1.110797e-08 ; sigma = 7.958079e-12
Product_state fixed-point CI iteration converged after 4 cycles
Entering product-state fixed-point CI iteration
Cycle 0: max grad = 3.135957e-02 ; sigma = 0.000000e+00
Cycle 1: max grad = 3.145707e-14 ; sigma = 4.729441e-02
Cycle 2: max grad = 1.797547e-14 ; sigma = 0.000000e+00
Product_state fixed-point CI iteration converged after 2 cycles
Entering product-state fixed-point CI iteration
Cycle 0: max grad = 2.733685e-02 ; sigma = 0.000000e+00
Cycle 1: max grad = 5.808691e-04 ; sigma = 2.108632e-02
Cycle 2: max grad = 6.219542e-06 ; sigma = 1.762008e-05
Cycle 3: max grad = 2.832225e-07 ; sigma = 2.810339e-09
Cycle 4: max grad = 7.001146e-09 ; sigma = 3.183231e-12
Product_state fixed-point CI iteration converged after 4 cycles
Entering product-state fixed-point CI iteration
Cycle 0: max grad = 4.556828e-02 ; sigma = 0.000000e+00
Cycle 1: max grad = 2.941654e-04 ; sigma = 4.017825e-02
Cycle 2: max grad = 9.275425e-06 ; sigma = 1.313782e-05
Cycle 3: max grad = 1.229803e-07 ; sigma = 1.906812e-09
Cycle 4: max grad = 3.681865e-09 ; sigma = 9.094947e-13
Product_state fixed-point CI iteration converged after 4 cycles
Entering product-state fixed-point CI iteration
Cycle 0: max grad = 4.082892e-02 ; sigma = 0.000000e+00
Cycle 1: max grad = 2.522867e-04 ; sigma = 6.338451e-02
Cycle 2: max grad = 2.201966e-05 ; sigma = 5.001175e-06
Cycle 3: max grad = 7.468353e-07 ; sigma = 1.881904e-08
Cycle 4: max grad = 8.518526e-08 ; sigma = 8.424195e-11
Product_state fixed-point CI iteration converged after 4 cycles
Entering product-state fixed-point CI iteration
Cycle 0: max grad = 3.135957e-02 ; sigma = 0.000000e+00
Cycle 1: max grad = 2.641399e-04 ; sigma = 3.616416e-02
Cycle 2: max grad = 1.397933e-05 ; sigma = 7.727996e-06
Cycle 3: max grad = 8.252563e-07 ; sigma = 4.468120e-09
Cycle 4: max grad = 3.926922e-08 ; sigma = 1.216449e-11
Product_state fixed-point CI iteration converged after 4 cycles
Entering product-state fixed-point CI iteration
Cycle 0: max grad = 3.135957e-02 ; sigma = 0.000000e+00
Cycle 1: max grad = 5.084231e-14 ; sigma = 4.786389e-02
Cycle 2: max grad = 5.084231e-14 ; sigma = 0.000000e+00
Product_state fixed-point CI iteration converged after 2 cycles
Entering product-state fixed-point CI iteration
Cycle 0: max grad = 4.565016e-02 ; sigma = 0.000000e+00
Cycle 1: max grad = 6.129309e-04 ; sigma = 4.025430e-02
Cycle 2: max grad = 4.346316e-05 ; sigma = 5.346203e-05
Cycle 3: max grad = 1.360215e-06 ; sigma = 3.812926e-08
Cycle 4: max grad = 8.940472e-08 ; sigma = 8.026291e-11
Product_state fixed-point CI iteration converged after 4 cycles
LASSCF state-average energy = -3971.78172024685
LASSCF state 0 energy = -3971.78172024685
LASSCF state 1 energy = -3971.78544204859
LASSCF state 2 energy = -3971.78703710648
LASSCF state 3 energy = -3971.78650542051
LASSCF state 4 energy = -3971.7838469907
LASSCF state 5 energy = -3970.70223739246
LASSCF state 6 energy = -3971.21910487136
LASSCF state 7 energy = -3713.27300419917
LASSCF state 8 energy = -3970.70405629642
LASSCF state 9 energy = -3971.22057596479
LASSCF state 10 energy = -3713.2740322833
LASSCF state 11 energy = -3970.704458501
LASSCF state 12 energy = -3971.22089075077
LASSCF state 13 energy = -3713.27424318433
LASSCF state 14 energy = -3970.70330901925
LASSCF state 15 energy = -3971.21997533099
LASSCF state 16 energy = -3713.27361696757
LASSCF state 17 energy = -3713.27219810874
LASSCF state 18 energy = -3968.32922189875
LASSCF state 19 energy = -3971.57255611491
LASSCF state 20 energy = -3971.69954574247
LASSCF state 21 energy = -3971.6583235955
LASSCF state 22 energy = -3969.36351704038
LASSCF state 23 energy = -3710.99758794905
LASSCF state 24 energy = -3968.32960527266
LASSCF state 25 energy = -3971.57529455087
LASSCF state 26 energy = -3971.70157163074
LASSCF state 27 energy = -3971.66025628802
LASSCF state 28 energy = -3969.36434555201
LASSCF state 29 energy = -3710.99832357843
LASSCF state 30 energy = -3968.32947678906
LASSCF state 31 energy = -3971.57436305258
LASSCF state 32 energy = -3971.70089240146
LASSCF state 33 energy = -3971.65960920436
LASSCF state 34 energy = -3969.36406134788
LASSCF state 35 energy = -3710.99807674165
LASSCF state 36 energy = -3971.65641949914
LASSCF state 37 energy = -3710.99686390826
LASSCF state 38 energy = -3964.50700482338
LASSCF state 39 energy = -3970.59127140006
LASSCF state 40 energy = -3970.65794520233
LASSCF state 41 energy = -3970.63689586099
LASSCF state 42 energy = -3971.09236386959
LASSCF state 43 energy = -3971.17843820462
LASSCF state 44 energy = -3971.13414689497
LASSCF state 45 energy = -3713.18709606834
LASSCF state 46 energy = -3966.10056939061
LASSCF state 47 energy = -3707.3598538793
LASSCF state 48 energy = -3964.5070931681
LASSCF state 49 energy = -3970.59147257609
LASSCF state 50 energy = -3970.65811045389
LASSCF state 51 energy = -3970.63732598356
LASSCF state 52 energy = -3971.09274209842
LASSCF state 53 energy = -3971.17873749115
LASSCF state 54 energy = -3971.13443746025
LASSCF state 55 energy = -3713.18730853843
LASSCF state 56 energy = -3966.10080235233
LASSCF state 57 energy = -3707.36012607063
LASSCF state 58 energy = -3970.63615825147
LASSCF state 59 energy = -3971.13358608017
LASSCF state 60 energy = -3713.18667862007
LASSCF state 61 energy = -3707.35932694038
Entering product-state fixed-point CI iteration
Cycle 0: max grad = 8.416143e+02 ; sigma = 0.000000e+00
Cycle 1: max grad = 1.136868e-13 ; sigma = 1.136868e-13
Product_state fixed-point CI iteration converged after 1 cycles
Entering product-state fixed-point CI iteration
Cycle 0: max grad = 8.416196e+02 ; sigma = 0.000000e+00
Cycle 1: max grad = 3.907985e-14 ; sigma = 2.273737e-13
Product_state fixed-point CI iteration converged after 1 cycles
Entering product-state fixed-point CI iteration
Cycle 0: max grad = 8.416218e+02 ; sigma = 0.000000e+00
Cycle 1: max grad = 1.392374e-13 ; sigma = 4.547474e-13
Product_state fixed-point CI iteration converged after 1 cycles
Entering product-state fixed-point CI iteration
Cycle 0: max grad = 8.416211e+02 ; sigma = 0.000000e+00
Cycle 1: max grad = 8.526513e-14 ; sigma = 1.136868e-13
Product_state fixed-point CI iteration converged after 1 cycles
Entering product-state fixed-point CI iteration
Cycle 0: max grad = 8.416173e+02 ; sigma = 0.000000e+00
Cycle 1: max grad = 5.684342e-14 ; sigma = 1.136868e-13
Product_state fixed-point CI iteration converged after 1 cycles
Entering product-state fixed-point CI iteration
Cycle 0: max grad = 4.842903e+03 ; sigma = 0.000000e+00
Cycle 1: max grad = 4.907008e-11 ; sigma = 7.958079e-13
Product_state fixed-point CI iteration converged after 1 cycles
Entering product-state fixed-point CI iteration
Cycle 0: max grad = 1.932224e+03 ; sigma = 0.000000e+00
Cycle 1: max grad = 1.636201e-09 ; sigma = 2.728484e-12
Product_state fixed-point CI iteration converged after 1 cycles
Entering product-state fixed-point CI iteration
Cycle 0: max grad = 1.896990e+01 ; sigma = 0.000000e+00
Cycle 1: max grad = 5.084229e-14 ; sigma = 5.684342e-14
Product_state fixed-point CI iteration converged after 1 cycles
Entering product-state fixed-point CI iteration
Cycle 0: max grad = 4.012056e+03 ; sigma = 0.000000e+00
Cycle 1: max grad = 6.534996e-12 ; sigma = 5.684342e-13
Product_state fixed-point CI iteration converged after 1 cycles
Entering product-state fixed-point CI iteration
Cycle 0: max grad = 1.993856e+03 ; sigma = 0.000000e+00
Cycle 1: max grad = 3.899459e-11 ; sigma = 2.046363e-12
Product_state fixed-point CI iteration converged after 1 cycles
Entering product-state fixed-point CI iteration
Cycle 0: max grad = 2.197082e+01 ; sigma = 0.000000e+00
Cycle 1: max grad = 2.696320e-14 ; sigma = 0.000000e+00
Product_state fixed-point CI iteration converged after 1 cycles
Entering product-state fixed-point CI iteration
Cycle 0: max grad = 3.480741e+03 ; sigma = 0.000000e+00
Cycle 1: max grad = 2.364988e-12 ; sigma = 1.477929e-12
Product_state fixed-point CI iteration converged after 1 cycles
Entering product-state fixed-point CI iteration
Cycle 0: max grad = 2.005481e+03 ; sigma = 0.000000e+00
Cycle 1: max grad = 4.912939e-11 ; sigma = 1.818989e-12
Product_state fixed-point CI iteration converged after 1 cycles
Entering product-state fixed-point CI iteration
Cycle 0: max grad = 2.340478e+01 ; sigma = 0.000000e+00
Cycle 1: max grad = 3.595093e-14 ; sigma = 0.000000e+00
Product_state fixed-point CI iteration converged after 1 cycles
Entering product-state fixed-point CI iteration
Cycle 0: max grad = 4.528930e+03 ; sigma = 0.000000e+00
Cycle 1: max grad = 2.150102e-11 ; sigma = 9.094947e-13
Product_state fixed-point CI iteration converged after 1 cycles
Entering product-state fixed-point CI iteration
Cycle 0: max grad = 1.969743e+03 ; sigma = 0.000000e+00
Cycle 1: max grad = 2.770335e-10 ; sigma = 2.501110e-12
Product_state fixed-point CI iteration converged after 1 cycles
Entering product-state fixed-point CI iteration
Cycle 0: max grad = 2.028512e+01 ; sigma = 0.000000e+00
Cycle 1: max grad = 2.542115e-14 ; sigma = 5.684342e-14
Product_state fixed-point CI iteration converged after 1 cycles
Entering product-state fixed-point CI iteration
Cycle 0: max grad = 1.789168e+01 ; sigma = 0.000000e+00
Cycle 1: max grad = 5.329071e-15 ; sigma = 5.684342e-14
Product_state fixed-point CI iteration converged after 1 cycles
Entering product-state fixed-point CI iteration
Cycle 0: max grad = 4.490340e+03 ; sigma = 0.000000e+00
Cycle 1: max grad = 1.280652e-10 ; sigma = 1.136868e-13
Product_state fixed-point CI iteration converged after 1 cycles
Entering product-state fixed-point CI iteration
Cycle 0: max grad = 6.731622e+02 ; sigma = 0.000000e+00
Cycle 1: max grad = 1.408726e-10 ; sigma = 2.273737e-13
Product_state fixed-point CI iteration converged after 1 cycles
Entering product-state fixed-point CI iteration
Cycle 0: max grad = 6.733432e+02 ; sigma = 0.000000e+00
Cycle 1: max grad = 2.520579e-13 ; sigma = 1.136868e-13
Product_state fixed-point CI iteration converged after 1 cycles
Entering product-state fixed-point CI iteration
Cycle 0: max grad = 8.416069e+02 ; sigma = 0.000000e+00
Cycle 1: max grad = 1.936229e-13 ; sigma = 3.410605e-13
Product_state fixed-point CI iteration converged after 1 cycles
Entering product-state fixed-point CI iteration
Cycle 0: max grad = 8.201751e+01 ; sigma = 0.000000e+00
Cycle 1: max grad = 1.366337e-08 ; sigma = 1.364242e-12
Product_state fixed-point CI iteration converged after 1 cycles
Entering product-state fixed-point CI iteration
Cycle 0: max grad = 8.983255e+02 ; sigma = 0.000000e+00
Cycle 1: max grad = 1.009113e-10 ; sigma = 1.136868e-13
Product_state fixed-point CI iteration converged after 1 cycles
Entering product-state fixed-point CI iteration
Cycle 0: max grad = 4.483996e+03 ; sigma = 0.000000e+00
Cycle 1: max grad = 2.084430e-10 ; sigma = 0.000000e+00
Product_state fixed-point CI iteration converged after 1 cycles
Entering product-state fixed-point CI iteration
Cycle 0: max grad = 6.604193e+02 ; sigma = 0.000000e+00
Cycle 1: max grad = 3.590719e-10 ; sigma = 0.000000e+00
Product_state fixed-point CI iteration converged after 1 cycles
Entering product-state fixed-point CI iteration
Cycle 0: max grad = 1.365584e+02 ; sigma = 0.000000e+00
Cycle 1: max grad = 2.009718e-13 ; sigma = 1.136868e-13
Product_state fixed-point CI iteration converged after 1 cycles
Entering product-state fixed-point CI iteration
Cycle 0: max grad = 8.416097e+02 ; sigma = 0.000000e+00
Cycle 1: max grad = 9.572570e-14 ; sigma = 1.136868e-13
Product_state fixed-point CI iteration converged after 1 cycles
Entering product-state fixed-point CI iteration
Cycle 0: max grad = 4.726100e+03 ; sigma = 0.000000e+00
Cycle 1: max grad = 8.814122e-10 ; sigma = 1.364242e-12
Product_state fixed-point CI iteration converged after 1 cycles
Entering product-state fixed-point CI iteration
Cycle 0: max grad = 9.027635e+02 ; sigma = 0.000000e+00
Cycle 1: max grad = 1.572076e-11 ; sigma = 1.136868e-13
Product_state fixed-point CI iteration converged after 1 cycles
Entering product-state fixed-point CI iteration
Cycle 0: max grad = 4.486193e+03 ; sigma = 0.000000e+00
Cycle 1: max grad = 7.409788e-10 ; sigma = 0.000000e+00
Product_state fixed-point CI iteration converged after 1 cycles
Entering product-state fixed-point CI iteration
Cycle 0: max grad = 6.647778e+02 ; sigma = 0.000000e+00
Cycle 1: max grad = 1.226799e-10 ; sigma = 0.000000e+00
Product_state fixed-point CI iteration converged after 1 cycles
Entering product-state fixed-point CI iteration
Cycle 0: max grad = 6.778772e+02 ; sigma = 0.000000e+00
Cycle 1: max grad = 2.711556e-13 ; sigma = 5.684342e-13
Product_state fixed-point CI iteration converged after 1 cycles
Entering product-state fixed-point CI iteration
Cycle 0: max grad = 8.416088e+02 ; sigma = 0.000000e+00
Cycle 1: max grad = 1.705303e-13 ; sigma = 0.000000e+00
Product_state fixed-point CI iteration converged after 1 cycles
Entering product-state fixed-point CI iteration
Cycle 0: max grad = 8.235691e+01 ; sigma = 0.000000e+00
Cycle 1: max grad = 3.042601e-09 ; sigma = 1.591616e-12
Product_state fixed-point CI iteration converged after 1 cycles
Entering product-state fixed-point CI iteration
Cycle 0: max grad = 9.012772e+02 ; sigma = 0.000000e+00
Cycle 1: max grad = 3.216627e-11 ; sigma = 1.705303e-13
Product_state fixed-point CI iteration converged after 1 cycles
Entering product-state fixed-point CI iteration
Cycle 0: max grad = 8.416040e+02 ; sigma = 0.000000e+00
Cycle 1: max grad = 4.547474e-13 ; sigma = 0.000000e+00
Product_state fixed-point CI iteration converged after 1 cycles
Entering product-state fixed-point CI iteration
Cycle 0: max grad = 8.939015e+02 ; sigma = 0.000000e+00
Cycle 1: max grad = 3.862510e-10 ; sigma = 5.684342e-14
Product_state fixed-point CI iteration converged after 1 cycles
Entering product-state fixed-point CI iteration
Cycle 0: max grad = 5.933087e+03 ; sigma = 0.000000e+00
Cycle 1: max grad = 7.522427e-12 ; sigma = 1.136868e-13
Product_state fixed-point CI iteration converged after 1 cycles
Entering product-state fixed-point CI iteration
Cycle 0: max grad = 1.905250e+03 ; sigma = 0.000000e+00
Cycle 1: max grad = 2.809611e-10 ; sigma = 3.410605e-13
Product_state fixed-point CI iteration converged after 1 cycles
Entering product-state fixed-point CI iteration
Cycle 0: max grad = 1.902746e+03 ; sigma = 0.000000e+00
Cycle 1: max grad = 2.903966e-11 ; sigma = 0.000000e+00
Product_state fixed-point CI iteration converged after 1 cycles
Entering product-state fixed-point CI iteration
Cycle 0: max grad = 4.246081e+03 ; sigma = 0.000000e+00
Cycle 1: max grad = 3.968766e-10 ; sigma = 3.410605e-13
Product_state fixed-point CI iteration converged after 1 cycles
Entering product-state fixed-point CI iteration
Cycle 0: max grad = 7.525862e+01 ; sigma = 0.000000e+00
Cycle 1: max grad = 1.701324e-10 ; sigma = 1.136868e-13
Product_state fixed-point CI iteration converged after 1 cycles
Entering product-state fixed-point CI iteration
Cycle 0: max grad = 7.931115e+01 ; sigma = 0.000000e+00
Cycle 1: max grad = 8.778795e-10 ; sigma = 2.273737e-13
Product_state fixed-point CI iteration converged after 1 cycles
Entering product-state fixed-point CI iteration
Cycle 0: max grad = 1.936162e+03 ; sigma = 0.000000e+00
Cycle 1: max grad = 3.021737e-10 ; sigma = 2.501110e-12
Product_state fixed-point CI iteration converged after 1 cycles
Entering product-state fixed-point CI iteration
Cycle 0: max grad = 4.287039e+01 ; sigma = 0.000000e+00
Cycle 1: max grad = 2.696320e-14 ; sigma = 0.000000e+00
Product_state fixed-point CI iteration converged after 1 cycles
Entering product-state fixed-point CI iteration
Cycle 0: max grad = 5.800084e+02 ; sigma = 0.000000e+00
Cycle 1: max grad = 1.076534e-09 ; sigma = 7.958079e-13
Product_state fixed-point CI iteration converged after 1 cycles
Entering product-state fixed-point CI iteration
Cycle 0: max grad = 4.321917e+01 ; sigma = 0.000000e+00
Cycle 1: max grad = 4.716756e-10 ; sigma = 5.684342e-14
Product_state fixed-point CI iteration converged after 1 cycles
Entering product-state fixed-point CI iteration
Cycle 0: max grad = 5.932844e+03 ; sigma = 0.000000e+00
Cycle 1: max grad = 3.517187e-11 ; sigma = 1.136868e-13
Product_state fixed-point CI iteration converged after 1 cycles
Entering product-state fixed-point CI iteration
Cycle 0: max grad = 1.902044e+03 ; sigma = 0.000000e+00
Cycle 1: max grad = 7.564616e-11 ; sigma = 1.136868e-13
Product_state fixed-point CI iteration converged after 1 cycles
Entering product-state fixed-point CI iteration
Cycle 0: max grad = 8.907871e+01 ; sigma = 0.000000e+00
Cycle 1: max grad = 4.831782e-11 ; sigma = 2.273737e-13
Product_state fixed-point CI iteration converged after 1 cycles
Entering product-state fixed-point CI iteration
Cycle 0: max grad = 3.412947e+03 ; sigma = 0.000000e+00
Cycle 1: max grad = 7.162002e-09 ; sigma = 0.000000e+00
Product_state fixed-point CI iteration converged after 1 cycles
Entering product-state fixed-point CI iteration
Cycle 0: max grad = 7.678330e+01 ; sigma = 0.000000e+00
Cycle 1: max grad = 4.374016e-09 ; sigma = 3.410605e-13
Product_state fixed-point CI iteration converged after 1 cycles
Entering product-state fixed-point CI iteration
Cycle 0: max grad = 2.185827e+02 ; sigma = 0.000000e+00
Cycle 1: max grad = 5.612183e-09 ; sigma = 9.094947e-13
Product_state fixed-point CI iteration converged after 1 cycles
Entering product-state fixed-point CI iteration
Cycle 0: max grad = 1.940152e+03 ; sigma = 0.000000e+00
Cycle 1: max grad = 1.890352e-10 ; sigma = 2.160050e-12
Product_state fixed-point CI iteration converged after 1 cycles
Entering product-state fixed-point CI iteration
Cycle 0: max grad = 1.110347e+01 ; sigma = 0.000000e+00
Cycle 1: max grad = 3.145707e-14 ; sigma = 5.684342e-14
Product_state fixed-point CI iteration converged after 1 cycles
Entering product-state fixed-point CI iteration
Cycle 0: max grad = 5.675291e+02 ; sigma = 0.000000e+00
Cycle 1: max grad = 2.260236e-10 ; sigma = 7.958079e-13
Product_state fixed-point CI iteration converged after 1 cycles
Entering product-state fixed-point CI iteration
Cycle 0: max grad = 4.312907e+01 ; sigma = 0.000000e+00
Cycle 1: max grad = 8.417988e-11 ; sigma = 1.705303e-13
Product_state fixed-point CI iteration converged after 1 cycles
Entering product-state fixed-point CI iteration
Cycle 0: max grad = 4.789260e+03 ; sigma = 0.000000e+00
Cycle 1: max grad = 3.814588e-09 ; sigma = 0.000000e+00
Product_state fixed-point CI iteration converged after 1 cycles
Entering product-state fixed-point CI iteration
Cycle 0: max grad = 1.930330e+03 ; sigma = 0.000000e+00
Cycle 1: max grad = 2.442590e-09 ; sigma = 2.387424e-12
Product_state fixed-point CI iteration converged after 1 cycles
Entering product-state fixed-point CI iteration
Cycle 0: max grad = 1.073151e+01 ; sigma = 0.000000e+00
Cycle 1: max grad = 5.084231e-14 ; sigma = 5.684342e-14
Product_state fixed-point CI iteration converged after 1 cycles
Entering product-state fixed-point CI iteration
Cycle 0: max grad = 4.313762e+01 ; sigma = 0.000000e+00
Cycle 1: max grad = 4.930416e-09 ; sigma = 5.684342e-14
Product_state fixed-point CI iteration converged after 1 cycles
LASSCF state-average energy = -3971.78172024685
LASSCF state 0 energy = -3971.78172024685
LASSCF state 1 energy = -3971.78544204859
LASSCF state 2 energy = -3971.78703710648
LASSCF state 3 energy = -3971.78650542051
LASSCF state 4 energy = -3971.7838469907
LASSCF state 5 energy = -3970.70223739246
LASSCF state 6 energy = -3971.21910487136
LASSCF state 7 energy = -3713.27300419917
LASSCF state 8 energy = -3970.70405629642
LASSCF state 9 energy = -3971.22057596479
LASSCF state 10 energy = -3713.2740322833
LASSCF state 11 energy = -3970.704458501
LASSCF state 12 energy = -3971.22089075077
LASSCF state 13 energy = -3713.27424318433
LASSCF state 14 energy = -3970.70330901925
LASSCF state 15 energy = -3971.21997533099
LASSCF state 16 energy = -3713.27361696757
LASSCF state 17 energy = -3713.27219810874
LASSCF state 18 energy = -3968.32922189875
LASSCF state 19 energy = -3971.57255611491
LASSCF state 20 energy = -3971.69954574247
LASSCF state 21 energy = -3971.6583235955
LASSCF state 22 energy = -3969.36351704038
LASSCF state 23 energy = -3710.99758794905
LASSCF state 24 energy = -3968.32960527266
LASSCF state 25 energy = -3971.57529455087
LASSCF state 26 energy = -3971.70157163074
LASSCF state 27 energy = -3971.66025628802
LASSCF state 28 energy = -3969.36434555201
LASSCF state 29 energy = -3710.99832357843
LASSCF state 30 energy = -3968.32947678906
LASSCF state 31 energy = -3971.57436305258
LASSCF state 32 energy = -3971.70089240146
LASSCF state 33 energy = -3971.65960920436
LASSCF state 34 energy = -3969.36406134788
LASSCF state 35 energy = -3710.99807674165
LASSCF state 36 energy = -3971.65641949914
LASSCF state 37 energy = -3710.99686390826
LASSCF state 38 energy = -3964.50700482338
LASSCF state 39 energy = -3970.59127140006
LASSCF state 40 energy = -3970.65794520233
LASSCF state 41 energy = -3970.63689586099
LASSCF state 42 energy = -3971.09236386959
LASSCF state 43 energy = -3971.17843820462
LASSCF state 44 energy = -3971.13414689497
LASSCF state 45 energy = -3713.18709606834
LASSCF state 46 energy = -3966.10056939061
LASSCF state 47 energy = -3707.3598538793
LASSCF state 48 energy = -3964.5070931681
LASSCF state 49 energy = -3970.59147257609
LASSCF state 50 energy = -3970.65811045389
LASSCF state 51 energy = -3970.63732598356
LASSCF state 52 energy = -3971.09274209842
LASSCF state 53 energy = -3971.17873749115
LASSCF state 54 energy = -3971.13443746025
LASSCF state 55 energy = -3713.18730853843
LASSCF state 56 energy = -3966.10080235233
LASSCF state 57 energy = -3707.36012607063
LASSCF state 58 energy = -3970.63615825147
LASSCF state 59 energy = -3971.13358608017
LASSCF state 60 energy = -3713.18667862007
LASSCF state 61 energy = -3707.35932694038
LASSI op_o0 memory check: 7.951296 MB needed of 119986.397184 MB available (128000 MB max)
Symmetry analysis of 62 LAS rootspaces:
 ix            Energy  <S**2>  Neleca  Nelecb  Nelec   Wfnsym
  0  -3971.7817202469   4.750       6       5      11       A
  1  -3971.7854420486  11.750       6       5      11       A
  2  -3971.7870371065  14.750       6       5      11       A
  3  -3971.7865054205  13.750       6       5      11       A
  4  -3971.7838469907   8.750       6       5      11       A
  5  -3970.7022373925   3.750       6       5      11       A
  6  -3971.2191048714   3.750       6       5      11       A
  7  -3713.2730041992   8.750       6       5      11       A
  8  -3970.7040562964   8.750       6       5      11       A
  9  -3971.2205759648   8.750       6       5      11       A
 10  -3713.2740322833  13.750       6       5      11       A
 11  -3970.7044585010   9.750       6       5      11       A
 12  -3971.2208907508   9.750       6       5      11       A
 13  -3713.2742431843  14.750       6       5      11       A
 14  -3970.7033090193   6.750       6       5      11       A
 15  -3971.2199753310   6.750       6       5      11       A
 16  -3713.2736169676  11.750       6       5      11       A
 17  -3713.2721981087   4.750       6       5      11       A
 18  -3968.3292218987   2.750       6       5      11       A
 19  -3971.5725561149   2.750       6       5      11       A
 20  -3971.6995457425   7.750       6       5      11       A
 21  -3971.6583235955   6.750       6       5      11       A
 22  -3969.3635170404   2.750       6       5      11       A
 23  -3710.9975879491   6.750       6       5      11       A
 24  -3968.3296052727   5.750       6       5      11       A
 25  -3971.5752945509   5.750       6       5      11       A
 26  -3971.7015716307  10.750       6       5      11       A
 27  -3971.6602562880   9.750       6       5      11       A
 28  -3969.3643455520   5.750       6       5      11       A
 29  -3710.9983235784   9.750       6       5      11       A
 30  -3968.3294767891   4.750       6       5      11       A
 31  -3971.5743630526   4.750       6       5      11       A
 32  -3971.7008924015   9.750       6       5      11       A
 33  -3971.6596092044   8.750       6       5      11       A
 34  -3969.3640613479   4.750       6       5      11       A
 35  -3710.9980767416   8.750       6       5      11       A
 36  -3971.6564194991   3.750       6       5      11       A
 37  -3710.9968639083   3.750       6       5      11       A
 38  -3964.5070048234   1.750       6       5      11       A
 39  -3970.5912714001   1.750       6       5      11       A
 40  -3970.6579452023   5.750       6       5      11       A
 41  -3970.6368958610   4.750       6       5      11       A
 42  -3971.0923638696   1.750       6       5      11       A
 43  -3971.1784382046   5.750       6       5      11       A
 44  -3971.1341468950   4.750       6       5      11       A
 45  -3713.1870960683   9.750       6       5      11       A
 46  -3966.1005693906   1.750       6       5      11       A
 47  -3707.3598538793   4.750       6       5      11       A
 48  -3964.5070931681   2.750       6       5      11       A
 49  -3970.5914725761   2.750       6       5      11       A
 50  -3970.6581104539   6.750       6       5      11       A
 51  -3970.6373259836   5.750       6       5      11       A
 52  -3971.0927420984   2.750       6       5      11       A
 53  -3971.1787374912   6.750       6       5      11       A
 54  -3971.1344374603   5.750       6       5      11       A
 55  -3713.1873085384  10.750       6       5      11       A
 56  -3966.1008023523   2.750       6       5      11       A
 57  -3707.3601260706   5.750       6       5      11       A
 58  -3970.6361582515   2.750       6       5      11       A
 59  -3971.1335860802   2.750       6       5      11       A
 60  -3713.1866786201   7.750       6       5      11       A
 61  -3707.3593269404   2.750       6       5      11       A
Build + diag H matrix LASSI symmetry block 0
['neleca', 'nelecb', 'irrep'] = (6, 5, 0)
(62 rootspaces; 216 states)
LASSI eigenvalues (216 total):
 ix            Energy  <S**2>  Neleca  Nelecb  Wfnsym
  0  -3971.7923539661  24.750       6       5       A
  1  -3971.7882268215  15.750       6       5       A
  2  -3971.7850127363   8.750       6       5       A
  3  -3971.7827153264   3.750       6       5       A
  4  -3971.7813390438   0.750       6       5       A
  5  -3971.7061441984  15.750       6       5       A
  6  -3971.7011223873   8.750       6       5       A
  7  -3971.6976135074   3.751       6       5       A
  8  -3971.6888290601  15.720       6       5       A
  9  -3971.6854506808   8.741       6       5       A
 10  -3971.6829620234   3.789       6       5       A
 11  -3971.6645021531  15.749       6       5       A
 12  -3971.6605273024   8.749       6       5       A
 13  -3971.6596059878  15.724       6       5       A
 14  -3971.6577106887   3.750       6       5       A
 15  -3971.6560120794   0.754       6       5       A
 16  -3971.6547667562   8.687       6       5       A
 17  -3971.6514011456   3.751       6       5       A
 18  -3971.6493724215   0.837       6       5       A
 19  -3971.5784246170   8.750       6       5       A
 20  -3971.5739878613   3.750       6       5       A
 21  -3971.5734196289   8.746       6       5       A
 22  -3971.5714427056   0.751       6       5       A
 23  -3971.5685667190   3.748       6       5       A
 24  -3971.5657359023   0.756       6       5       A
 25  -3971.5610673612   8.748       6       5       A
 26  -3971.5585833425   3.749       6       5       A
 27  -3971.5570103533   0.754       6       5       A
 28  -3971.5556465104   8.744       6       5       A
 29  -3971.5528673849   3.747       6       5       A
 30  -3971.5511286737   0.758       6       5       A
 31  -3971.2238404220  15.750       6       5       A
 32  -3971.2219810039  15.749       6       5       A
 33  -3971.2203696872   8.749       6       5       A
 34  -3971.2190827626   3.756       6       5       A
 35  -3971.2190411286   8.743       6       5       A
 36  -3971.2183275222   0.751       6       5       A
 37  -3971.2157865505   3.750       6       5       A
 38  -3971.2138174490   0.750       6       5       A
 39  -3971.2120988678  15.750       6       5       A
 40  -3971.2102084728  15.749       6       5       A
 41  -3971.2093147956   8.750       6       5       A
 42  -3971.2081922310   8.749       6       5       A
 43  -3971.2079624993   3.750       6       5       A
 44  -3971.2072515851   0.751       6       5       A
 45  -3971.2061012491   3.750       6       5       A
 46  -3971.2047312129   0.751       6       5       A
 47  -3971.1804396436   8.750       6       5       A
 48  -3971.1790438225   8.750       6       5       A
 49  -3971.1779302103   3.750       6       5       A
 50  -3971.1729719228   8.737       6       5       A
 51  -3971.1728465991   3.762       6       5       A
 52  -3971.1719511531   8.750       6       5       A
 53  -3971.1716410163   3.752       6       5       A
 54  -3971.1691641872   3.750       6       5       A
 55  -3971.1354728319   8.746       6       5       A
 56  -3971.1354057160   8.748       6       5       A
 57  -3971.1338984405   3.749       6       5       A
 58  -3971.1329873726   0.752       6       5       A
 59  -3971.1304373174   3.747       6       5       A
 60  -3971.1274803783   0.759       6       5       A
 61  -3971.1244242083   8.744       6       5       A
 62  -3971.1241893332   8.748       6       5       A
 63  -3971.1226546469   3.749       6       5       A
 64  -3971.1216699288   0.754       6       5       A
 65  -3971.1208036897   3.746       6       5       A
 66  -3971.1186729660   0.759       6       5       A
 67  -3971.0931937622   3.749       6       5       A
 68  -3971.0929108548   3.746       6       5       A
 69  -3971.0919979744   0.750       6       5       A
 70  -3971.0867115935   3.749       6       5       A
 71  -3971.0862435706   0.754       6       5       A
 72  -3971.0854345436   0.750       6       5       A
 73  -3971.0845951559   3.746       6       5       A
 74  -3971.0822992116   0.754       6       5       A
 75  -3970.7077628945  15.750       6       5       A
 76  -3970.7062742772  15.744       6       5       A
 77  -3970.7058272732   8.751       6       5       A
 78  -3970.7045458629   3.747       6       5       A
 79  -3970.7039967452   8.655       6       5       A
 80  -3970.7037745259   0.852       6       5       A
 81  -3970.7024243719   3.743       6       5       A
 82  -3970.7014659927   0.759       6       5       A
 83  -3970.6896944052  15.750       6       5       A
 84  -3970.6871736888  15.744       6       5       A
 85  -3970.6864079442   8.750       6       5       A
 86  -3970.6856589115   3.816       6       5       A
 87  -3970.6855245504   8.668       6       5       A
 88  -3970.6852248672   0.772       6       5       A
 89  -3970.6827590699   3.750       6       5       A
 90  -3970.6810392197   0.750       6       5       A
 91  -3970.6609430882   8.750       6       5       A
 92  -3970.6585504736   3.750       6       5       A
 93  -3970.6406286428   8.743       6       5       A
 94  -3970.6404103337   3.757       6       5       A
 95  -3970.6398518129   8.750       6       5       A
 96  -3970.6381139292   8.750       6       5       A
 97  -3970.6364581734   3.750       6       5       A
 98  -3970.6354016380   0.751       6       5       A
 99  -3970.6342015446   3.751       6       5       A
Remaining 116 eigenvalues truncated; increase verbosity to print them all
